# vtk DataFile Version 3.0
LBM Fluid Grid
ASCII
DATASET STRUCTURED_POINTS
DIMENSIONS 400 150 1
ORIGIN 0 0 0
SPACING 1 1 1
POINT_DATA 60000
SCALARS VelocityMagnitude double 1
LOOKUP_TABLE default
0.1
0.100009
0.10002
0.100033
0.100048
0.100065
0.100083
0.100104
0.100128
0.100155
0.100185
0.100219
0.100257
0.100299
0.100346
0.100398
0.100456
0.100519
0.100587
0.100661
0.10074
0.100825
0.100915
0.10101
0.10111
0.101215
0.101325
0.10144
0.10156
0.101685
0.101814
0.101948
0.102088
0.102233
0.102383
0.102539
0.102701
0.102869
0.103043
0.103225
0.103413
0.103609
0.103812
0.104023
0.104242
0.104469
0.104704
0.104948
0.1052
0.105461
0.10573
0.106007
0.106294
0.106588
0.106892
0.107204
0.107524
0.107853
0.108191
0.108537
0.108891
0.109254
0.109626
0.110006
0.110394
0.110791
0.111196
0.111609
0.11203
0.11246
0.112896
0.113341
0.113793
0.114252
0.114718
0.11519
0.115668
0.116152
0.116641
0.117135
0.117634
0.118136
0.118641
0.11915
0.11966
0.120172
0.120686
0.121199
0.121713
0.122226
0.122738
0.123247
0.123755
0.124259
0.124761
0.125258
0.12575
0.126238
0.12672
0.127195
0.127665
0.128128
0.128583
0.12903
0.12947
0.129901
0.130323
0.130737
0.131141
0.131535
0.131919
0.132294
0.132658
0.133011
0.133354
0.133687
0.134008
0.134318
0.134618
0.134906
0.135184
0.13545
0.135705
0.13595
0.136183
0.136406
0.136618
0.13682
0.137011
0.137191
0.137362
0.137523
0.137674
0.137815
0.137947
0.138069
0.138183
0.138288
0.138384
0.138472
0.138551
0.138623
0.138687
0.138743
0.138792
0.138834
0.138869
0.138897
0.138919
0.138934
0.138943
0.138947
0.138944
0.138936
0.138922
0.138904
0.13888
0.138851
0.138818
0.13878
0.138737
0.138691
0.13864
0.138585
0.138527
0.138466
0.1384
0.138332
0.13826
0.138186
0.138109
0.138029
0.137947
0.137862
0.137775
0.137686
0.137595
0.137502
0.137408
0.137312
0.137214
0.137115
0.137015
0.136913
0.136811
0.136707
0.136603
0.136497
0.136391
0.136284
0.136177
0.136068
0.13596
0.135851
0.135742
0.135632
0.135522
0.135412
0.135302
0.135191
0.135081
0.134971
0.13486
0.13475
0.13464
0.13453
0.134421
0.134312
0.134203
0.134094
0.133986
0.133879
0.133772
0.133665
0.133559
0.133454
0.133349
0.133245
0.133141
0.133039
0.132936
0.132835
0.132734
0.132634
0.132535
0.132437
0.132339
0.132242
0.132146
0.13205
0.131955
0.131862
0.131768
0.131676
0.131585
0.131494
0.131404
0.131315
0.131227
0.131139
0.131053
0.130967
0.130882
0.130798
0.130715
0.130632
0.130551
0.13047
0.13039
0.130311
0.130233
0.130155
0.130079
0.130003
0.129928
0.129854
0.129781
0.129708
0.129636
0.129565
0.129495
0.129426
0.129357
0.129289
0.129222
0.129156
0.12909
0.129025
0.128961
0.128897
0.128835
0.128772
0.128711
0.12865
0.12859
0.128531
0.128472
0.128414
0.128357
0.1283
0.128244
0.128188
0.128133
0.128079
0.128026
0.127973
0.12792
0.127868
0.127817
0.127767
0.127717
0.127667
0.127618
0.12757
0.127522
0.127475
0.127428
0.127382
0.127336
0.127291
0.127247
0.127203
0.127159
0.127116
0.127073
0.127031
0.126989
0.126948
0.126907
0.126867
0.126827
0.126788
0.126749
0.126711
0.126673
0.126635
0.126598
0.126562
0.126526
0.12649
0.126455
0.12642
0.126386
0.126352
0.126318
0.126285
0.126252
0.12622
0.126188
0.126157
0.126126
0.126096
0.126066
0.126036
0.126007
0.125978
0.12595
0.125922
0.125894
0.125867
0.125841
0.125814
0.125789
0.125763
0.125739
0.125714
0.12569
0.125667
0.125644
0.125621
0.125599
0.125578
0.125557
0.125536
0.125516
0.125497
0.125478
0.125459
0.125441
0.125423
0.125406
0.12539
0.125374
0.125359
0.125344
0.125329
0.125316
0.125303
0.12529
0.125278
0.125266
0.125255
0.125245
0.125235
0.125226
0.125218
0.125209
0.125202
0.125195
0.125189
0.125183
0.125177
0.125173
0.125168
0.125165
0.125161
0.125158
0.125156
0.125154
0.125152
0.125151
0.125149
0.125148
0.125148
0.125147
0.125147
0.125146
0.125146
0.125145
0.125145
0.1
0.100009
0.10002
0.100033
0.100048
0.100065
0.100083
0.100104
0.100128
0.100155
0.100185
0.100219
0.100256
0.100299
0.100346
0.100398
0.100456
0.100518
0.100587
0.10066
0.10074
0.100824
0.100914
0.101009
0.101109
0.101214
0.101325
0.101439
0.101559
0.101684
0.101813
0.101947
0.102087
0.102232
0.102382
0.102538
0.102699
0.102868
0.103042
0.103223
0.103412
0.103607
0.103811
0.104021
0.10424
0.104467
0.104703
0.104946
0.105198
0.105459
0.105728
0.106005
0.106292
0.106586
0.10689
0.107202
0.107522
0.107851
0.108189
0.108535
0.108889
0.109252
0.109624
0.110004
0.110393
0.110789
0.111194
0.111608
0.112029
0.112458
0.112896
0.11334
0.113792
0.114251
0.114717
0.11519
0.115668
0.116153
0.116642
0.117136
0.117635
0.118137
0.118643
0.119152
0.119662
0.120175
0.120688
0.121202
0.121716
0.122229
0.122741
0.123251
0.123759
0.124264
0.124765
0.125263
0.125755
0.126243
0.126725
0.127201
0.127671
0.128134
0.128589
0.129037
0.129477
0.129908
0.130331
0.130744
0.131148
0.131542
0.131927
0.132301
0.132665
0.133019
0.133362
0.133694
0.134015
0.134326
0.134625
0.134914
0.135191
0.135457
0.135713
0.135957
0.136191
0.136413
0.136625
0.136827
0.137018
0.137198
0.137369
0.137529
0.13768
0.137821
0.137953
0.138075
0.138189
0.138294
0.13839
0.138477
0.138557
0.138629
0.138692
0.138749
0.138798
0.138839
0.138874
0.138902
0.138924
0.138939
0.138948
0.138951
0.138949
0.13894
0.138927
0.138908
0.138884
0.138855
0.138822
0.138784
0.138741
0.138694
0.138644
0.138589
0.138531
0.138469
0.138404
0.138335
0.138264
0.138189
0.138112
0.138032
0.13795
0.137865
0.137778
0.137689
0.137598
0.137505
0.137411
0.137314
0.137217
0.137118
0.137017
0.136916
0.136813
0.136709
0.136605
0.136499
0.136393
0.136286
0.136179
0.136071
0.135962
0.135853
0.135744
0.135634
0.135524
0.135414
0.135303
0.135193
0.135083
0.134972
0.134862
0.134752
0.134642
0.134532
0.134423
0.134313
0.134204
0.134096
0.133988
0.13388
0.133773
0.133667
0.133561
0.133455
0.13335
0.133246
0.133143
0.13304
0.132938
0.132836
0.132736
0.132636
0.132536
0.132438
0.13234
0.132243
0.132147
0.132051
0.131957
0.131863
0.13177
0.131677
0.131586
0.131495
0.131405
0.131316
0.131228
0.13114
0.131054
0.130968
0.130883
0.130799
0.130716
0.130633
0.130552
0.130471
0.130391
0.130312
0.130234
0.130156
0.130079
0.130004
0.129929
0.129855
0.129781
0.129709
0.129637
0.129566
0.129496
0.129426
0.129358
0.12929
0.129223
0.129156
0.129091
0.129026
0.128961
0.128898
0.128835
0.128773
0.128711
0.128651
0.128591
0.128531
0.128472
0.128414
0.128357
0.1283
0.128244
0.128188
0.128134
0.128079
0.128026
0.127973
0.12792
0.127868
0.127817
0.127767
0.127717
0.127667
0.127618
0.12757
0.127522
0.127475
0.127428
0.127382
0.127336
0.127291
0.127246
0.127202
0.127159
0.127115
0.127073
0.127031
0.126989
0.126948
0.126907
0.126867
0.126827
0.126788
0.126749
0.12671
0.126672
0.126635
0.126598
0.126561
0.126525
0.126489
0.126454
0.126419
0.126385
0.126351
0.126317
0.126284
0.126251
0.126219
0.126187
0.126156
0.126125
0.126094
0.126064
0.126035
0.126005
0.125977
0.125948
0.12592
0.125893
0.125866
0.125839
0.125813
0.125787
0.125762
0.125737
0.125712
0.125688
0.125665
0.125642
0.125619
0.125597
0.125576
0.125555
0.125534
0.125514
0.125494
0.125475
0.125457
0.125439
0.125421
0.125404
0.125387
0.125371
0.125356
0.125341
0.125327
0.125313
0.1253
0.125287
0.125275
0.125264
0.125253
0.125242
0.125232
0.125223
0.125214
0.125206
0.125199
0.125192
0.125185
0.125179
0.125174
0.125169
0.125165
0.125161
0.125158
0.125155
0.125152
0.12515
0.125148
0.125147
0.125146
0.125145
0.125144
0.125144
0.125143
0.125142
0.125142
0.125141
0.125141
0.1
0.100009
0.10002
0.100033
0.100048
0.100064
0.100083
0.100104
0.100128
0.100154
0.100184
0.100218
0.100256
0.100298
0.100345
0.100398
0.100455
0.100518
0.100586
0.100659
0.100738
0.100823
0.100913
0.101007
0.101107
0.101212
0.101322
0.101437
0.101557
0.101681
0.10181
0.101944
0.102084
0.102228
0.102378
0.102534
0.102696
0.102863
0.103038
0.103219
0.103407
0.103603
0.103806
0.104016
0.104235
0.104462
0.104697
0.104941
0.105193
0.105453
0.105722
0.105999
0.106286
0.10658
0.106884
0.107196
0.107516
0.107845
0.108183
0.108529
0.108884
0.109247
0.109619
0.109999
0.110388
0.110785
0.11119
0.111604
0.112026
0.112455
0.112893
0.113338
0.113791
0.11425
0.114717
0.11519
0.115669
0.116154
0.116644
0.117139
0.117638
0.118142
0.118648
0.119157
0.119669
0.120182
0.120696
0.121211
0.121726
0.12224
0.122753
0.123264
0.123772
0.124278
0.12478
0.125278
0.125771
0.12626
0.126742
0.127219
0.127689
0.128153
0.128609
0.129057
0.129497
0.129929
0.130352
0.130765
0.13117
0.131564
0.131949
0.132324
0.132688
0.133042
0.133385
0.133717
0.134038
0.134349
0.134648
0.134936
0.135214
0.13548
0.135735
0.135979
0.136213
0.136435
0.136647
0.136848
0.137039
0.137219
0.137389
0.13755
0.1377
0.137841
0.137972
0.138095
0.138208
0.138312
0.138408
0.138495
0.138574
0.138646
0.138709
0.138765
0.138814
0.138855
0.13889
0.138918
0.138939
0.138954
0.138963
0.138966
0.138963
0.138954
0.13894
0.138921
0.138897
0.138868
0.138834
0.138796
0.138753
0.138706
0.138655
0.1386
0.138542
0.13848
0.138414
0.138346
0.138274
0.138199
0.138122
0.138042
0.137959
0.137874
0.137787
0.137698
0.137606
0.137513
0.137419
0.137322
0.137224
0.137125
0.137025
0.136923
0.13682
0.136716
0.136612
0.136506
0.1364
0.136293
0.136185
0.136077
0.135968
0.135859
0.135749
0.13564
0.13553
0.135419
0.135309
0.135199
0.135088
0.134978
0.134867
0.134757
0.134647
0.134537
0.134427
0.134318
0.134209
0.134101
0.133993
0.133885
0.133778
0.133671
0.133565
0.13346
0.133355
0.13325
0.133147
0.133044
0.132942
0.13284
0.132739
0.132639
0.13254
0.132441
0.132344
0.132247
0.13215
0.132055
0.13196
0.131866
0.131773
0.131681
0.131589
0.131498
0.131408
0.131319
0.131231
0.131143
0.131057
0.130971
0.130886
0.130802
0.130718
0.130636
0.130554
0.130473
0.130393
0.130314
0.130236
0.130158
0.130082
0.130006
0.129931
0.129857
0.129783
0.129711
0.129639
0.129568
0.129498
0.129428
0.12936
0.129292
0.129224
0.129158
0.129092
0.129027
0.128963
0.128899
0.128836
0.128774
0.128713
0.128652
0.128592
0.128532
0.128473
0.128415
0.128358
0.128301
0.128245
0.128189
0.128134
0.12808
0.128026
0.127973
0.127921
0.127869
0.127817
0.127767
0.127717
0.127667
0.127618
0.12757
0.127522
0.127474
0.127428
0.127381
0.127336
0.12729
0.127246
0.127201
0.127158
0.127114
0.127072
0.127029
0.126988
0.126946
0.126905
0.126865
0.126825
0.126786
0.126747
0.126708
0.12667
0.126632
0.126595
0.126559
0.126522
0.126487
0.126451
0.126416
0.126382
0.126348
0.126314
0.126281
0.126248
0.126216
0.126184
0.126152
0.126121
0.12609
0.12606
0.12603
0.126001
0.125972
0.125944
0.125916
0.125888
0.125861
0.125834
0.125808
0.125782
0.125756
0.125731
0.125707
0.125683
0.125659
0.125636
0.125613
0.125591
0.125569
0.125548
0.125527
0.125507
0.125487
0.125468
0.12545
0.125431
0.125414
0.125396
0.12538
0.125364
0.125348
0.125333
0.125319
0.125305
0.125291
0.125279
0.125266
0.125255
0.125244
0.125233
0.125223
0.125214
0.125205
0.125197
0.125189
0.125182
0.125175
0.125169
0.125164
0.125159
0.125155
0.125151
0.125147
0.125144
0.125142
0.125139
0.125138
0.125136
0.125135
0.125134
0.125133
0.125132
0.125132
0.125131
0.125131
0.12513
0.12513
0.1
0.100009
0.10002
0.100033
0.100048
0.100064
0.100083
0.100104
0.100127
0.100154
0.100184
0.100217
0.100255
0.100297
0.100344
0.100396
0.100454
0.100516
0.100584
0.100658
0.100736
0.100821
0.10091
0.101005
0.101104
0.101209
0.101319
0.101433
0.101553
0.101677
0.101806
0.101939
0.102078
0.102223
0.102372
0.102528
0.102689
0.102857
0.103031
0.103212
0.1034
0.103595
0.103798
0.104008
0.104227
0.104453
0.104688
0.104931
0.105183
0.105443
0.105712
0.10599
0.106276
0.10657
0.106874
0.107185
0.107506
0.107835
0.108173
0.108519
0.108874
0.109238
0.10961
0.10999
0.110379
0.110777
0.111183
0.111597
0.11202
0.11245
0.112888
0.113334
0.113788
0.114248
0.114716
0.11519
0.11567
0.116156
0.116647
0.117144
0.117644
0.118149
0.118656
0.119167
0.11968
0.120194
0.12071
0.121226
0.121742
0.122258
0.122772
0.123284
0.123794
0.124301
0.124804
0.125303
0.125798
0.126287
0.126771
0.127249
0.12772
0.128184
0.128641
0.12909
0.129531
0.129964
0.130387
0.130801
0.131206
0.131601
0.131986
0.132361
0.132725
0.133079
0.133423
0.133755
0.134076
0.134387
0.134686
0.134974
0.135251
0.135517
0.135772
0.136016
0.136249
0.136471
0.136683
0.136883
0.137074
0.137254
0.137423
0.137583
0.137733
0.137874
0.138005
0.138126
0.138239
0.138343
0.138438
0.138525
0.138604
0.138674
0.138737
0.138793
0.138841
0.138882
0.138916
0.138943
0.138964
0.138978
0.138987
0.138989
0.138986
0.138977
0.138962
0.138943
0.138918
0.138889
0.138854
0.138816
0.138772
0.138725
0.138674
0.138619
0.13856
0.138497
0.138431
0.138362
0.13829
0.138215
0.138137
0.138057
0.137974
0.137889
0.137801
0.137712
0.13762
0.137527
0.137432
0.137335
0.137237
0.137138
0.137037
0.136935
0.136832
0.136728
0.136623
0.136517
0.136411
0.136304
0.136196
0.136087
0.135978
0.135869
0.135759
0.135649
0.135539
0.135429
0.135318
0.135208
0.135097
0.134986
0.134876
0.134765
0.134655
0.134545
0.134435
0.134326
0.134217
0.134108
0.134
0.133892
0.133785
0.133678
0.133572
0.133467
0.133362
0.133257
0.133154
0.133051
0.132948
0.132847
0.132746
0.132646
0.132546
0.132447
0.13235
0.132252
0.132156
0.13206
0.131966
0.131872
0.131778
0.131686
0.131594
0.131503
0.131413
0.131324
0.131236
0.131148
0.131062
0.130976
0.130891
0.130806
0.130723
0.13064
0.130559
0.130478
0.130398
0.130318
0.13024
0.130162
0.130086
0.13001
0.129935
0.12986
0.129787
0.129714
0.129642
0.129571
0.129501
0.129431
0.129363
0.129294
0.129227
0.129161
0.129095
0.12903
0.128965
0.128902
0.128839
0.128776
0.128715
0.128654
0.128593
0.128534
0.128475
0.128417
0.128359
0.128302
0.128246
0.12819
0.128135
0.12808
0.128027
0.127973
0.127921
0.127869
0.127817
0.127767
0.127716
0.127667
0.127618
0.127569
0.127521
0.127473
0.127427
0.12738
0.127334
0.127289
0.127244
0.1272
0.127156
0.127112
0.127069
0.127027
0.126985
0.126944
0.126903
0.126862
0.126822
0.126782
0.126743
0.126705
0.126666
0.126629
0.126591
0.126554
0.126518
0.126482
0.126446
0.126411
0.126377
0.126342
0.126308
0.126275
0.126242
0.12621
0.126177
0.126146
0.126115
0.126084
0.126053
0.126023
0.125994
0.125965
0.125936
0.125908
0.12588
0.125852
0.125825
0.125799
0.125773
0.125747
0.125722
0.125697
0.125673
0.125649
0.125626
0.125603
0.125581
0.125559
0.125537
0.125516
0.125496
0.125476
0.125456
0.125437
0.125419
0.125401
0.125384
0.125367
0.125351
0.125335
0.12532
0.125305
0.125291
0.125277
0.125264
0.125252
0.12524
0.125229
0.125218
0.125208
0.125198
0.125189
0.125181
0.125173
0.125165
0.125159
0.125153
0.125147
0.125142
0.125137
0.125133
0.125129
0.125126
0.125124
0.125121
0.125119
0.125118
0.125116
0.125115
0.125114
0.125114
0.125113
0.125112
0.125112
0.125111
0.125111
0.1
0.100009
0.10002
0.100033
0.100047
0.100064
0.100082
0.100103
0.100127
0.100153
0.100183
0.100217
0.100254
0.100296
0.100343
0.100395
0.100452
0.100514
0.100582
0.100655
0.100733
0.100817
0.100907
0.101001
0.1011
0.101205
0.101314
0.101428
0.101547
0.10167
0.101799
0.101932
0.102071
0.102215
0.102364
0.102519
0.10268
0.102847
0.103021
0.103201
0.103389
0.103584
0.103786
0.103996
0.104214
0.104441
0.104675
0.104918
0.10517
0.10543
0.105698
0.105976
0.106262
0.106556
0.106859
0.107171
0.107492
0.107821
0.108159
0.108506
0.108861
0.109225
0.109597
0.109978
0.110368
0.110766
0.111173
0.111588
0.112011
0.112442
0.112882
0.113329
0.113784
0.114245
0.114714
0.11519
0.115671
0.116159
0.116652
0.11715
0.117652
0.118158
0.118668
0.11918
0.119695
0.120211
0.120729
0.121247
0.121765
0.122282
0.122798
0.123312
0.123824
0.124333
0.124838
0.125339
0.125835
0.126326
0.126811
0.127291
0.127763
0.128229
0.128687
0.129137
0.129579
0.130012
0.130437
0.130852
0.131257
0.131653
0.132038
0.132413
0.132778
0.133132
0.133476
0.133808
0.134129
0.13444
0.134739
0.135027
0.135304
0.135569
0.135824
0.136067
0.1363
0.136522
0.136733
0.136933
0.137123
0.137302
0.137471
0.13763
0.13778
0.137919
0.13805
0.138171
0.138283
0.138386
0.13848
0.138566
0.138644
0.138714
0.138777
0.138831
0.138879
0.138919
0.138952
0.138979
0.138999
0.139013
0.139021
0.139022
0.139018
0.139009
0.138993
0.138973
0.138948
0.138918
0.138883
0.138844
0.1388
0.138752
0.1387
0.138644
0.138585
0.138522
0.138456
0.138386
0.138313
0.138238
0.13816
0.138079
0.137995
0.13791
0.137822
0.137732
0.13764
0.137546
0.137451
0.137354
0.137255
0.137156
0.137054
0.136952
0.136849
0.136744
0.136639
0.136533
0.136426
0.136319
0.13621
0.136102
0.135993
0.135883
0.135773
0.135663
0.135552
0.135442
0.135331
0.13522
0.135109
0.134998
0.134888
0.134777
0.134667
0.134556
0.134447
0.134337
0.134228
0.134119
0.13401
0.133903
0.133795
0.133688
0.133582
0.133476
0.133371
0.133267
0.133163
0.13306
0.132957
0.132855
0.132754
0.132654
0.132555
0.132456
0.132358
0.13226
0.132164
0.132068
0.131973
0.131879
0.131786
0.131693
0.131602
0.131511
0.13142
0.131331
0.131243
0.131155
0.131068
0.130982
0.130897
0.130813
0.130729
0.130646
0.130564
0.130483
0.130403
0.130324
0.130245
0.130168
0.130091
0.130015
0.12994
0.129865
0.129792
0.129719
0.129647
0.129575
0.129505
0.129435
0.129366
0.129298
0.129231
0.129164
0.129098
0.129033
0.128968
0.128904
0.128841
0.128779
0.128717
0.128656
0.128596
0.128536
0.128477
0.128418
0.12836
0.128303
0.128247
0.128191
0.128136
0.128081
0.128027
0.127974
0.127921
0.127869
0.127817
0.127766
0.127716
0.127666
0.127617
0.127568
0.12752
0.127472
0.127425
0.127378
0.127332
0.127286
0.127241
0.127197
0.127153
0.127109
0.127066
0.127023
0.126981
0.12694
0.126898
0.126858
0.126817
0.126777
0.126738
0.126699
0.126661
0.126623
0.126585
0.126548
0.126511
0.126475
0.126439
0.126404
0.126369
0.126334
0.1263
0.126267
0.126233
0.126201
0.126168
0.126136
0.126105
0.126074
0.126043
0.126013
0.125983
0.125954
0.125925
0.125896
0.125868
0.12584
0.125813
0.125786
0.12576
0.125734
0.125708
0.125683
0.125659
0.125635
0.125611
0.125588
0.125565
0.125543
0.125521
0.1255
0.125479
0.125459
0.125439
0.12542
0.125401
0.125383
0.125365
0.125348
0.125332
0.125316
0.1253
0.125285
0.125271
0.125257
0.125243
0.125231
0.125218
0.125207
0.125196
0.125185
0.125176
0.125166
0.125158
0.125149
0.125142
0.125135
0.125128
0.125123
0.125117
0.125112
0.125108
0.125104
0.125101
0.125098
0.125095
0.125093
0.125091
0.12509
0.125089
0.125088
0.125087
0.125086
0.125085
0.125085
0.125084
0.125084
0.1
0.100009
0.10002
0.100033
0.100047
0.100064
0.100082
0.100103
0.100126
0.100152
0.100182
0.100215
0.100253
0.100295
0.100341
0.100393
0.10045
0.100512
0.100579
0.100652
0.10073
0.100813
0.100902
0.100996
0.101095
0.101199
0.101307
0.101421
0.101539
0.101662
0.10179
0.101923
0.102061
0.102205
0.102353
0.102508
0.102668
0.102835
0.103008
0.103188
0.103375
0.103569
0.103771
0.103981
0.104199
0.104425
0.104659
0.104901
0.105153
0.105412
0.105681
0.105958
0.106243
0.106538
0.106841
0.107153
0.107474
0.107803
0.108141
0.108488
0.108843
0.109208
0.109581
0.109962
0.110353
0.110752
0.111159
0.111576
0.112
0.112433
0.112873
0.113322
0.113778
0.114242
0.114712
0.11519
0.115673
0.116163
0.116658
0.117158
0.117662
0.118171
0.118683
0.119197
0.119714
0.120233
0.120753
0.121274
0.121794
0.122314
0.122832
0.123349
0.123863
0.124374
0.124881
0.125384
0.125883
0.126376
0.126863
0.127344
0.127819
0.128286
0.128746
0.129197
0.12964
0.130075
0.1305
0.130916
0.131323
0.131719
0.132105
0.132481
0.132846
0.133201
0.133544
0.133877
0.134198
0.134508
0.134807
0.135095
0.135371
0.135637
0.135891
0.136134
0.136366
0.136587
0.136797
0.136996
0.137185
0.137364
0.137532
0.137691
0.137839
0.137978
0.138107
0.138228
0.138339
0.138441
0.138535
0.13862
0.138697
0.138766
0.138827
0.138881
0.138928
0.138967
0.138999
0.139025
0.139044
0.139057
0.139064
0.139065
0.13906
0.139049
0.139033
0.139012
0.138986
0.138955
0.13892
0.138879
0.138835
0.138786
0.138734
0.138677
0.138617
0.138554
0.138487
0.138416
0.138343
0.138267
0.138188
0.138107
0.138023
0.137936
0.137848
0.137758
0.137665
0.137571
0.137475
0.137377
0.137279
0.137178
0.137077
0.136974
0.13687
0.136765
0.13666
0.136553
0.136446
0.136338
0.136229
0.13612
0.136011
0.135901
0.13579
0.13568
0.135569
0.135458
0.135347
0.135236
0.135125
0.135014
0.134903
0.134792
0.134681
0.134571
0.134461
0.134351
0.134241
0.134132
0.134024
0.133916
0.133808
0.133701
0.133594
0.133488
0.133383
0.133278
0.133174
0.133071
0.132968
0.132867
0.132765
0.132665
0.132565
0.132466
0.132368
0.132271
0.132174
0.132078
0.131983
0.131889
0.131795
0.131702
0.131611
0.131519
0.131429
0.13134
0.131251
0.131163
0.131076
0.13099
0.130905
0.13082
0.130737
0.130654
0.130572
0.13049
0.13041
0.130331
0.130252
0.130174
0.130097
0.130021
0.129946
0.129871
0.129797
0.129724
0.129652
0.129581
0.12951
0.12944
0.129371
0.129303
0.129235
0.129168
0.129102
0.129036
0.128972
0.128908
0.128844
0.128782
0.12872
0.128658
0.128598
0.128538
0.128478
0.12842
0.128362
0.128305
0.128248
0.128192
0.128136
0.128081
0.128027
0.127974
0.127921
0.127868
0.127816
0.127765
0.127714
0.127664
0.127615
0.127566
0.127517
0.127469
0.127422
0.127375
0.127329
0.127283
0.127237
0.127193
0.127148
0.127104
0.127061
0.127018
0.126976
0.126934
0.126892
0.126851
0.12681
0.12677
0.126731
0.126691
0.126653
0.126614
0.126576
0.126539
0.126502
0.126465
0.126429
0.126394
0.126358
0.126324
0.126289
0.126255
0.126222
0.126188
0.126156
0.126124
0.126092
0.12606
0.126029
0.125999
0.125968
0.125939
0.125909
0.12588
0.125852
0.125824
0.125796
0.125769
0.125742
0.125716
0.12569
0.125665
0.12564
0.125615
0.125591
0.125568
0.125545
0.125522
0.1255
0.125478
0.125457
0.125437
0.125416
0.125397
0.125378
0.125359
0.125341
0.125323
0.125306
0.12529
0.125274
0.125259
0.125244
0.12523
0.125216
0.125203
0.12519
0.125178
0.125167
0.125156
0.125146
0.125136
0.125127
0.125119
0.125111
0.125103
0.125097
0.12509
0.125085
0.125079
0.125075
0.125071
0.125067
0.125064
0.125061
0.125059
0.125057
0.125055
0.125054
0.125053
0.125052
0.125051
0.12505
0.125049
0.125048
0.125048
0.1
0.100009
0.10002
0.100032
0.100047
0.100063
0.100081
0.100102
0.100125
0.100151
0.100181
0.100214
0.100251
0.100293
0.100339
0.10039
0.100447
0.100508
0.100575
0.100648
0.100725
0.100808
0.100896
0.10099
0.101088
0.101191
0.1013
0.101412
0.10153
0.101653
0.10178
0.101912
0.10205
0.102192
0.10234
0.102494
0.102654
0.10282
0.102992
0.103172
0.103358
0.103552
0.103753
0.103962
0.10418
0.104405
0.104639
0.104881
0.105132
0.105391
0.105659
0.105936
0.106221
0.106515
0.106818
0.10713
0.107451
0.10778
0.108119
0.108466
0.108822
0.109187
0.10956
0.109943
0.110334
0.110734
0.111143
0.11156
0.111986
0.11242
0.112863
0.113313
0.113771
0.114237
0.114709
0.115189
0.115675
0.116167
0.116664
0.117167
0.117674
0.118186
0.1187
0.119218
0.119738
0.12026
0.120783
0.121306
0.12183
0.122353
0.122874
0.123393
0.12391
0.124424
0.124934
0.12544
0.125941
0.126437
0.126927
0.12741
0.127887
0.128356
0.128817
0.129271
0.129716
0.130152
0.130578
0.130996
0.131403
0.1318
0.132187
0.132564
0.132929
0.133284
0.133628
0.13396
0.134282
0.134592
0.13489
0.135178
0.135454
0.135719
0.135972
0.136215
0.136446
0.136666
0.136876
0.137074
0.137262
0.13744
0.137607
0.137765
0.137912
0.13805
0.138178
0.138297
0.138407
0.138508
0.138601
0.138685
0.138761
0.138829
0.138889
0.138942
0.138987
0.139025
0.139056
0.139081
0.139099
0.139111
0.139117
0.139116
0.13911
0.139099
0.139082
0.13906
0.139033
0.139001
0.138964
0.138923
0.138878
0.138828
0.138775
0.138717
0.138656
0.138592
0.138524
0.138453
0.138379
0.138302
0.138223
0.13814
0.138056
0.137969
0.13788
0.137789
0.137696
0.137601
0.137504
0.137406
0.137307
0.137206
0.137104
0.137
0.136896
0.136791
0.136684
0.136577
0.13647
0.136361
0.136252
0.136143
0.136033
0.135922
0.135812
0.135701
0.13559
0.135478
0.135367
0.135255
0.135144
0.135032
0.134921
0.13481
0.134699
0.134588
0.134478
0.134368
0.134258
0.134149
0.13404
0.133931
0.133823
0.133716
0.133609
0.133503
0.133398
0.133293
0.133188
0.133085
0.132982
0.13288
0.132778
0.132678
0.132578
0.132479
0.13238
0.132283
0.132186
0.13209
0.131994
0.1319
0.131806
0.131713
0.131621
0.13153
0.131439
0.13135
0.131261
0.131173
0.131086
0.130999
0.130914
0.130829
0.130745
0.130662
0.13058
0.130499
0.130418
0.130338
0.130259
0.130181
0.130104
0.130028
0.129952
0.129877
0.129803
0.12973
0.129658
0.129586
0.129515
0.129445
0.129376
0.129307
0.129239
0.129172
0.129106
0.12904
0.128975
0.128911
0.128847
0.128784
0.128722
0.128661
0.1286
0.128539
0.12848
0.128421
0.128363
0.128305
0.128248
0.128192
0.128136
0.128081
0.128026
0.127972
0.127919
0.127866
0.127814
0.127763
0.127712
0.127661
0.127611
0.127562
0.127513
0.127465
0.127417
0.12737
0.127323
0.127277
0.127232
0.127186
0.127142
0.127097
0.127054
0.12701
0.126968
0.126925
0.126883
0.126842
0.126801
0.126761
0.126721
0.126681
0.126642
0.126603
0.126565
0.126527
0.12649
0.126453
0.126416
0.12638
0.126344
0.126309
0.126274
0.12624
0.126206
0.126172
0.126139
0.126107
0.126074
0.126042
0.126011
0.12598
0.125949
0.125919
0.125889
0.12586
0.125831
0.125803
0.125775
0.125747
0.12572
0.125693
0.125667
0.125641
0.125616
0.125591
0.125566
0.125542
0.125519
0.125495
0.125473
0.125451
0.125429
0.125408
0.125387
0.125367
0.125348
0.125329
0.12531
0.125292
0.125274
0.125257
0.125241
0.125225
0.12521
0.125195
0.125181
0.125167
0.125154
0.125142
0.12513
0.125119
0.125108
0.125098
0.125088
0.12508
0.125071
0.125063
0.125056
0.12505
0.125044
0.125038
0.125033
0.125028
0.125025
0.125021
0.125018
0.125015
0.125013
0.125011
0.12501
0.125008
0.125007
0.125006
0.125005
0.125004
0.125004
0.125004
0.1
0.100009
0.10002
0.100032
0.100046
0.100063
0.100081
0.100101
0.100124
0.10015
0.100179
0.100212
0.100249
0.100291
0.100337
0.100387
0.100443
0.100505
0.100571
0.100643
0.10072
0.100802
0.10089
0.100983
0.10108
0.101183
0.10129
0.101402
0.101519
0.101641
0.101767
0.101899
0.102036
0.102177
0.102325
0.102478
0.102637
0.102802
0.102974
0.103152
0.103338
0.103531
0.103732
0.10394
0.104157
0.104382
0.104615
0.104856
0.105106
0.105365
0.105633
0.105909
0.106195
0.106489
0.106791
0.107103
0.107424
0.107754
0.108092
0.10844
0.108796
0.109162
0.109536
0.10992
0.110312
0.110713
0.111123
0.111542
0.11197
0.112406
0.11285
0.113302
0.113763
0.114231
0.114706
0.115188
0.115677
0.116172
0.116672
0.117178
0.117689
0.118203
0.118721
0.119242
0.119766
0.120291
0.120818
0.121345
0.121872
0.122398
0.122923
0.123446
0.123967
0.124484
0.124997
0.125506
0.12601
0.126509
0.127002
0.127488
0.127967
0.128439
0.128903
0.129358
0.129805
0.130243
0.130671
0.13109
0.131498
0.131896
0.132284
0.132661
0.133028
0.133383
0.133727
0.134059
0.134381
0.134691
0.134989
0.135276
0.135552
0.135816
0.136069
0.13631
0.136541
0.13676
0.136968
0.137166
0.137353
0.13753
0.137696
0.137852
0.137998
0.138135
0.138262
0.138379
0.138488
0.138588
0.138679
0.138762
0.138836
0.138903
0.138962
0.139013
0.139057
0.139094
0.139124
0.139147
0.139164
0.139174
0.139179
0.139177
0.13917
0.139157
0.139139
0.139116
0.139088
0.139055
0.139017
0.138975
0.138928
0.138878
0.138823
0.138765
0.138703
0.138637
0.138569
0.138497
0.138422
0.138344
0.138263
0.13818
0.138095
0.138007
0.137917
0.137825
0.137731
0.137636
0.137539
0.13744
0.137339
0.137238
0.137135
0.137031
0.136926
0.13682
0.136713
0.136606
0.136498
0.136389
0.136279
0.136169
0.136058
0.135948
0.135836
0.135725
0.135613
0.135502
0.13539
0.135278
0.135166
0.135054
0.134942
0.134831
0.134719
0.134608
0.134498
0.134387
0.134277
0.134167
0.134058
0.133949
0.133841
0.133734
0.133627
0.13352
0.133414
0.133309
0.133205
0.133101
0.132998
0.132895
0.132793
0.132692
0.132592
0.132493
0.132394
0.132296
0.132199
0.132103
0.132007
0.131913
0.131819
0.131725
0.131633
0.131542
0.131451
0.131361
0.131272
0.131184
0.131096
0.13101
0.130924
0.130839
0.130755
0.130671
0.130589
0.130507
0.130427
0.130347
0.130267
0.130189
0.130112
0.130035
0.129959
0.129884
0.12981
0.129736
0.129664
0.129592
0.129521
0.12945
0.129381
0.129312
0.129244
0.129176
0.129109
0.129043
0.128978
0.128914
0.12885
0.128786
0.128724
0.128662
0.128601
0.12854
0.12848
0.128421
0.128363
0.128305
0.128247
0.128191
0.128135
0.128079
0.128024
0.12797
0.127916
0.127863
0.127811
0.127759
0.127707
0.127657
0.127606
0.127557
0.127507
0.127459
0.127411
0.127363
0.127316
0.127269
0.127223
0.127178
0.127133
0.127088
0.127044
0.127
0.126957
0.126914
0.126872
0.12683
0.126788
0.126748
0.126707
0.126667
0.126627
0.126588
0.12655
0.126511
0.126473
0.126436
0.126399
0.126362
0.126326
0.126291
0.126255
0.12622
0.126186
0.126152
0.126118
0.126085
0.126052
0.12602
0.125988
0.125956
0.125925
0.125895
0.125864
0.125834
0.125805
0.125776
0.125747
0.125719
0.125691
0.125664
0.125637
0.125611
0.125585
0.125559
0.125534
0.12551
0.125486
0.125462
0.125439
0.125416
0.125394
0.125372
0.125351
0.125331
0.12531
0.125291
0.125272
0.125253
0.125235
0.125217
0.1252
0.125184
0.125168
0.125153
0.125138
0.125124
0.12511
0.125097
0.125085
0.125073
0.125062
0.125051
0.125041
0.125032
0.125023
0.125014
0.125007
0.125
0.124993
0.124987
0.124982
0.124977
0.124972
0.124968
0.124965
0.124962
0.12496
0.124957
0.124955
0.124954
0.124953
0.124951
0.12495
0.12495
0.124949
0.124949
0.1
0.100009
0.100019
0.100032
0.100046
0.100062
0.10008
0.1001
0.100123
0.100149
0.100178
0.10021
0.100247
0.100288
0.100334
0.100384
0.10044
0.1005
0.100566
0.100637
0.100714
0.100795
0.100882
0.100974
0.101071
0.101173
0.101279
0.101391
0.101507
0.101628
0.101753
0.101884
0.102019
0.10216
0.102307
0.102459
0.102617
0.102781
0.102952
0.10313
0.103315
0.103507
0.103707
0.103914
0.10413
0.104354
0.104587
0.104828
0.105077
0.105336
0.105603
0.105879
0.106164
0.106457
0.10676
0.107072
0.107393
0.107722
0.108061
0.108409
0.108766
0.109133
0.109508
0.109892
0.110286
0.110688
0.1111
0.111521
0.11195
0.112388
0.112835
0.11329
0.113752
0.114223
0.114701
0.115187
0.115679
0.116177
0.116681
0.11719
0.117705
0.118223
0.118745
0.11927
0.119798
0.120328
0.120858
0.12139
0.121921
0.122451
0.12298
0.123507
0.124032
0.124553
0.12507
0.125583
0.126091
0.126593
0.127089
0.127578
0.12806
0.128535
0.129001
0.129459
0.129908
0.130348
0.130778
0.131198
0.131608
0.132008
0.132397
0.132775
0.133141
0.133497
0.133841
0.134174
0.134495
0.134805
0.135103
0.13539
0.135665
0.135928
0.13618
0.136421
0.13665
0.136868
0.137076
0.137272
0.137458
0.137633
0.137798
0.137952
0.138097
0.138232
0.138358
0.138474
0.138581
0.138679
0.138769
0.13885
0.138923
0.138988
0.139045
0.139095
0.139137
0.139173
0.139201
0.139223
0.139238
0.139247
0.13925
0.139247
0.139239
0.139224
0.139205
0.13918
0.139151
0.139116
0.139077