# vtk DataFile Version 3.0
LBM Fluid Grid
ASCII
DATASET STRUCTURED_POINTS
DIMENSIONS 400 150 1
ORIGIN 0 0 0
SPACING 1 1 1
POINT_DATA 60000
SCALARS VelocityMagnitude double 1
LOOKUP_TABLE default
0.1
0.100003
0.100009
0.10002
0.100035
0.100053
0.100075
0.100101
0.10013
0.100163
0.1002
0.10024
0.100284
0.100331
0.100382
0.100437
0.100496
0.100559
0.100626
0.100698
0.100773
0.100854
0.100939
0.101029
0.101124
0.101224
0.101329
0.101439
0.101555
0.101677
0.101804
0.101937
0.102076
0.102222
0.102373
0.10253
0.102694
0.102864
0.103041
0.103225
0.103415
0.103613
0.103817
0.104029
0.104249
0.104476
0.10471
0.104953
0.105204
0.105463
0.10573
0.106006
0.106291
0.106584
0.106885
0.107196
0.107516
0.107844
0.108182
0.108528
0.108883
0.109247
0.10962
0.110002
0.110392
0.110791
0.111198
0.111614
0.112037
0.112469
0.112908
0.113354
0.113808
0.114269
0.114736
0.115209
0.115688
0.116173
0.116663
0.117158
0.117656
0.118159
0.118665
0.119173
0.119684
0.120197
0.12071
0.121225
0.121739
0.122253
0.122766
0.123277
0.123786
0.124293
0.124795
0.125294
0.125788
0.126278
0.126761
0.127239
0.12771
0.128175
0.128631
0.12908
0.129521
0.129953
0.130376
0.13079
0.131194
0.131589
0.131973
0.132347
0.132711
0.133064
0.133407
0.133738
0.134059
0.134369
0.134668
0.134955
0.135232
0.135498
0.135753
0.135997
0.13623
0.136453
0.136664
0.136866
0.137057
0.137237
0.137408
0.137569
0.13772
0.137861
0.137993
0.138115
0.138229
0.138334
0.13843
0.138517
0.138596
0.138668
0.138731
0.138787
0.138835
0.138876
0.138911
0.138938
0.138959
0.138973
0.138981
0.138983
0.13898
0.138971
0.138956
0.138936
0.138911
0.138882
0.138848
0.138809
0.138766
0.138719
0.138667
0.138613
0.138554
0.138492
0.138426
0.138358
0.138286
0.138212
0.138135
0.138055
0.137972
0.137888
0.137801
0.137712
0.137621
0.137528
0.137433
0.137337
0.137239
0.13714
0.137039
0.136938
0.136835
0.136731
0.136626
0.136521
0.136414
0.136307
0.1362
0.136091
0.135983
0.135874
0.135764
0.135655
0.135545
0.135435
0.135325
0.135215
0.135105
0.134995
0.134885
0.134775
0.134666
0.134556
0.134447
0.134339
0.13423
0.134122
0.134015
0.133908
0.133801
0.133695
0.13359
0.133485
0.13338
0.133277
0.133173
0.133071
0.132969
0.132868
0.132768
0.132668
0.132569
0.132471
0.132373
0.132276
0.13218
0.132085
0.131991
0.131897
0.131804
0.131712
0.131621
0.131531
0.131441
0.131353
0.131265
0.131178
0.131091
0.131006
0.130921
0.130837
0.130754
0.130672
0.130591
0.13051
0.13043
0.130351
0.130273
0.130196
0.130119
0.130043
0.129968
0.129894
0.129821
0.129748
0.129676
0.129605
0.129535
0.129465
0.129396
0.129328
0.129261
0.129194
0.129128
0.129063
0.128998
0.128935
0.128871
0.128809
0.128747
0.128686
0.128626
0.128566
0.128507
0.128449
0.128391
0.128334
0.128277
0.128221
0.128166
0.128111
0.128057
0.128004
0.127951
0.127898
0.127847
0.127796
0.127745
0.127695
0.127646
0.127597
0.127548
0.1275
0.127453
0.127406
0.12736
0.127315
0.127269
0.127225
0.127181
0.127137
0.127094
0.127051
0.127009
0.126967
0.126926
0.126885
0.126845
0.126805
0.126766
0.126727
0.126689
0.126651
0.126614
0.126576
0.12654
0.126504
0.126468
0.126433
0.126398
0.126364
0.12633
0.126296
0.126263
0.126231
0.126199
0.126167
0.126136
0.126105
0.126075
0.126045
0.126015
0.125986
0.125958
0.12593
0.125902
0.125875
0.125848
0.125821
0.125796
0.12577
0.125745
0.125721
0.125697
0.125673
0.12565
0.125627
0.125605
0.125584
0.125562
0.125542
0.125522
0.125502
0.125483
0.125464
0.125446
0.125429
0.125412
0.125395
0.125379
0.125364
0.125349
0.125335
0.125321
0.125308
0.125296
0.125284
0.125272
0.125261
0.125251
0.125242
0.125233
0.125224
0.125216
0.125209
0.125202
0.125196
0.12519
0.125185
0.12518
0.125176
0.125173
0.12517
0.125167
0.125165
0.125163
0.125161
0.12516
0.125159
0.125159
0.125158
0.125158
0.125158
0.125158
0.125157
0.125157
0.125157
0.1
0.100003
0.100009
0.10002
0.100035
0.100053
0.100075
0.100101
0.10013
0.100163
0.1002
0.10024
0.100284
0.100331
0.100383
0.100438
0.100497
0.10056
0.100627
0.100698
0.100774
0.100854
0.100939
0.101029
0.101124
0.101224
0.101329
0.10144
0.101556
0.101678
0.101805
0.101938
0.102078
0.102223
0.102374
0.102531
0.102695
0.102866
0.103042
0.103226
0.103417
0.103614
0.103819
0.104031
0.10425
0.104477
0.104712
0.104955
0.105206
0.105465
0.105732
0.106008
0.106293
0.106586
0.106887
0.107198
0.107518
0.107846
0.108183
0.10853
0.108885
0.109249
0.109622
0.110003
0.110394
0.110792
0.1112
0.111615
0.112038
0.11247
0.112909
0.113355
0.113809
0.114269
0.114736
0.115209
0.115688
0.116173
0.116662
0.117157
0.117655
0.118157
0.118663
0.119171
0.119682
0.120194
0.120708
0.121222
0.121736
0.12225
0.122762
0.123273
0.123782
0.124288
0.12479
0.125289
0.125783
0.126272
0.126756
0.127233
0.127704
0.128168
0.128625
0.129074
0.129514
0.129946
0.130369
0.130783
0.131187
0.131581
0.131966
0.13234
0.132703
0.133057
0.133399
0.133731
0.134051
0.134361
0.13466
0.134948
0.135225
0.135491
0.135746
0.13599
0.136223
0.136445
0.136657
0.136859
0.13705
0.137231
0.137401
0.137562
0.137713
0.137854
0.137986
0.138109
0.138223
0.138327
0.138424
0.138511
0.138591
0.138662
0.138726
0.138781
0.13883
0.138871
0.138905
0.138933
0.138954
0.138968
0.138976
0.138979
0.138975
0.138966
0.138952
0.138932
0.138907
0.138878
0.138844
0.138805
0.138762
0.138715
0.138664
0.138609
0.13855
0.138488
0.138423
0.138355
0.138283
0.138209
0.138131
0.138052
0.137969
0.137885
0.137798
0.137709
0.137618
0.137525
0.137431
0.137334
0.137237
0.137137
0.137037
0.136935
0.136833
0.136729
0.136624
0.136518
0.136412
0.136305
0.136197
0.136089
0.135981
0.135872
0.135762
0.135653
0.135543
0.135433
0.135323
0.135213
0.135103
0.134993
0.134883
0.134773
0.134664
0.134555
0.134446
0.134337
0.134229
0.134121
0.134013
0.133906
0.1338
0.133694
0.133588
0.133483
0.133379
0.133275
0.133172
0.13307
0.132968
0.132867
0.132766
0.132667
0.132568
0.132469
0.132372
0.132275
0.132179
0.132084
0.13199
0.131896
0.131803
0.131711
0.13162
0.13153
0.13144
0.131352
0.131264
0.131177
0.13109
0.131005
0.13092
0.130836
0.130753
0.130671
0.13059
0.130509
0.13043
0.130351
0.130272
0.130195
0.130118
0.130043
0.129968
0.129894
0.12982
0.129747
0.129676
0.129604
0.129534
0.129465
0.129396
0.129328
0.12926
0.129194
0.129128
0.129062
0.128998
0.128934
0.128871
0.128809
0.128747
0.128686
0.128625
0.128566
0.128507
0.128448
0.128391
0.128333
0.128277
0.128221
0.128166
0.128111
0.128057
0.128004
0.127951
0.127898
0.127847
0.127796
0.127745
0.127695
0.127646
0.127597
0.127548
0.127501
0.127453
0.127407
0.127361
0.127315
0.12727
0.127225
0.127181
0.127137
0.127094
0.127052
0.12701
0.126968
0.126927
0.126886
0.126846
0.126806
0.126767
0.126728
0.12669
0.126652
0.126614
0.126577
0.126541
0.126505
0.126469
0.126434
0.126399
0.126365
0.126331
0.126298
0.126265
0.126232
0.1262
0.126168
0.126137
0.126106
0.126076
0.126046
0.126017
0.125988
0.125959
0.125931
0.125903
0.125876
0.125849
0.125823
0.125797
0.125772
0.125747
0.125723
0.125699
0.125675
0.125652
0.125629
0.125607
0.125586
0.125565
0.125544
0.125524
0.125504
0.125485
0.125467
0.125449
0.125431
0.125414
0.125398
0.125382
0.125367
0.125352
0.125338
0.125324
0.125311
0.125298
0.125287
0.125275
0.125264
0.125254
0.125245
0.125236
0.125227
0.125219
0.125212
0.125205
0.125199
0.125193
0.125188
0.125184
0.12518
0.125176
0.125173
0.12517
0.125168
0.125166
0.125165
0.125164
0.125163
0.125162
0.125162
0.125162
0.125162
0.125161
0.125161
0.125161
0.125161
0.1
0.100003
0.100009
0.10002
0.100035
0.100053
0.100075
0.100101
0.10013
0.100163
0.1002
0.10024
0.100284
0.100331
0.100382
0.100437
0.100496
0.100559
0.100626
0.100698
0.100773
0.100854
0.100939
0.101029
0.101124
0.101224
0.101329
0.101439
0.101555
0.101677
0.101804
0.101937
0.102076
0.102222
0.102373
0.10253
0.102694
0.102864
0.103041
0.103225
0.103415
0.103613
0.103817
0.104029
0.104249
0.104476
0.10471
0.104953
0.105204
0.105463
0.10573
0.106006
0.106291
0.106584
0.106885
0.107196
0.107516
0.107844
0.108182
0.108528
0.108883
0.109247
0.10962
0.110002
0.110392
0.110791
0.111198
0.111614
0.112037
0.112469
0.112908
0.113354
0.113808
0.114269
0.114736
0.115209
0.115688
0.116173
0.116663
0.117158
0.117656
0.118159
0.118665
0.119173
0.119684
0.120197
0.12071
0.121225
0.121739
0.122253
0.122766
0.123277
0.123786
0.124293
0.124795
0.125294
0.125788
0.126278
0.126761
0.127239
0.12771
0.128175
0.128631
0.12908
0.129521
0.129953
0.130376
0.13079
0.131194
0.131589
0.131973
0.132347
0.132711
0.133064
0.133407
0.133738
0.134059
0.134369
0.134668
0.134955
0.135232
0.135498
0.135753
0.135997
0.13623
0.136453
0.136664
0.136866
0.137057
0.137237
0.137408
0.137569
0.13772
0.137861
0.137993
0.138115
0.138229
0.138334
0.13843
0.138517
0.138596
0.138668
0.138731
0.138787
0.138835
0.138876
0.138911
0.138938
0.138959
0.138973
0.138981
0.138983
0.13898
0.138971
0.138956
0.138936
0.138911
0.138882
0.138848
0.138809
0.138766
0.138719
0.138667
0.138613
0.138554
0.138492
0.138426
0.138358
0.138286
0.138212
0.138135
0.138055
0.137972
0.137888
0.137801
0.137712
0.137621
0.137528
0.137433
0.137337
0.137239
0.13714
0.137039
0.136938
0.136835
0.136731
0.136626
0.136521
0.136414
0.136307
0.1362
0.136091
0.135983
0.135874
0.135764
0.135655
0.135545
0.135435
0.135325
0.135215
0.135105
0.134995
0.134885
0.134775
0.134666
0.134556
0.134447
0.134339
0.13423
0.134122
0.134015
0.133908
0.133801
0.133695
0.13359
0.133485
0.13338
0.133277
0.133173
0.133071
0.132969
0.132868
0.132768
0.132668
0.132569
0.132471
0.132373
0.132276
0.13218
0.132085
0.131991
0.131897
0.131804
0.131712
0.131621
0.131531
0.131441
0.131353
0.131265
0.131178
0.131091
0.131006
0.130921
0.130837
0.130754
0.130672
0.130591
0.13051
0.13043
0.130351
0.130273
0.130196
0.130119
0.130043
0.129968
0.129894
0.129821
0.129748
0.129676
0.129605
0.129535
0.129465
0.129396
0.129328
0.129261
0.129194
0.129128
0.129063
0.128998
0.128935
0.128871
0.128809
0.128747
0.128686
0.128626
0.128566
0.128507
0.128449
0.128391
0.128334
0.128277
0.128221
0.128166
0.128111
0.128057
0.128004
0.127951
0.127898
0.127847
0.127796
0.127745
0.127695
0.127646
0.127597
0.127548
0.127501
0.127453
0.127407
0.12736
0.127315
0.127269
0.127225
0.127181
0.127137
0.127094
0.127051
0.127009
0.126967
0.126926
0.126885
0.126845
0.126805
0.126766
0.126727
0.126689
0.126651
0.126614
0.126576
0.12654
0.126504
0.126468
0.126433
0.126398
0.126364
0.12633
0.126296
0.126263
0.126231
0.126199
0.126167
0.126136
0.126105
0.126075
0.126045
0.126015
0.125986
0.125958
0.12593
0.125902
0.125875
0.125848
0.125821
0.125796
0.12577
0.125745
0.125721
0.125697
0.125673
0.12565
0.125627
0.125605
0.125584
0.125562
0.125542
0.125522
0.125502
0.125483
0.125464
0.125446
0.125429
0.125412
0.125395
0.125379
0.125364
0.125349
0.125335
0.125321
0.125308
0.125296
0.125284
0.125272
0.125261
0.125251
0.125242
0.125233
0.125224
0.125216
0.125209
0.125202
0.125196
0.12519
0.125185
0.12518
0.125176
0.125173
0.12517
0.125167
0.125165
0.125163
0.125161
0.12516
0.125159
0.125159
0.125158
0.125158
0.125158
0.125158
0.125157
0.125157
0.125157
0.1
0.100003
0.100009
0.10002
0.100034
0.100053
0.100075
0.1001
0.10013
0.100163
0.100199
0.100239
0.100283
0.10033
0.100382
0.100437
0.100495
0.100558
0.100625
0.100696
0.100772
0.100852
0.100937
0.101027
0.101122
0.101222
0.101327
0.101437
0.101553
0.101674
0.101801
0.101934
0.102073
0.102218
0.102369
0.102526
0.10269
0.10286
0.103037
0.10322
0.103411
0.103608
0.103812
0.104024
0.104243
0.10447
0.104705
0.104948
0.105198
0.105457
0.105724
0.106
0.106285
0.106578
0.106879
0.10719
0.10751
0.107838
0.108176
0.108522
0.108877
0.109242
0.109615
0.109997
0.110387
0.110786
0.111194
0.11161
0.112034
0.112466
0.112905
0.113352
0.113806
0.114268
0.114735
0.115209
0.115689
0.116174
0.116665
0.11716
0.11766
0.118163
0.11867
0.119179
0.119691
0.120204
0.120719
0.121234
0.121749
0.122264
0.122778
0.12329
0.123799
0.124306
0.12481
0.125309
0.125804
0.126294
0.126779
0.127257
0.127729
0.128194
0.128651
0.1291
0.129541
0.129974
0.130397
0.130811
0.131216
0.131611
0.131995
0.13237
0.132733
0.133087
0.133429
0.133761
0.134082
0.134392
0.13469
0.134978
0.135255
0.13552
0.135775
0.136019
0.136252
0.136474
0.136686
0.136887
0.137078
0.137258
0.137428
0.137589
0.137739
0.13788
0.138012
0.138134
0.138247
0.138352
0.138448
0.138535
0.138614
0.138685
0.138748
0.138803
0.138851
0.138892
0.138926
0.138953
0.138974
0.138988
0.138996
0.138997
0.138994
0.138984
0.138969
0.138949
0.138924
0.138894
0.13886
0.138821
0.138777
0.13873
0.138679
0.138623
0.138565
0.138502
0.138437
0.138368
0.138296
0.138221
0.138144
0.138064
0.137981
0.137896
0.137809
0.13772
0.137629
0.137536
0.137441
0.137345
0.137247
0.137147
0.137047
0.136945
0.136842
0.136738
0.136633
0.136527
0.136421
0.136314
0.136206
0.136097
0.135989
0.135879
0.13577
0.13566
0.13555
0.13544
0.13533
0.13522
0.13511
0.135
0.13489
0.13478
0.13467
0.134561
0.134452
0.134343
0.134235
0.134127
0.134019
0.133912
0.133806
0.133699
0.133594
0.133489
0.133384
0.133281
0.133177
0.133075
0.132973
0.132872
0.132771
0.132671
0.132572
0.132474
0.132377
0.13228
0.132184
0.132088
0.131994
0.1319
0.131808
0.131716
0.131624
0.131534
0.131444
0.131355
0.131268
0.13118
0.131094
0.131009
0.130924
0.13084
0.130757
0.130675
0.130593
0.130513
0.130433
0.130354
0.130276
0.130198
0.130121
0.130046
0.129971
0.129896
0.129823
0.12975
0.129678
0.129607
0.129537
0.129467
0.129398
0.12933
0.129262
0.129196
0.12913
0.129064
0.129
0.128936
0.128873
0.12881
0.128748
0.128687
0.128627
0.128567
0.128508
0.128449
0.128392
0.128334
0.128278
0.128222
0.128166
0.128112
0.128057
0.128004
0.127951
0.127899
0.127847
0.127796
0.127745
0.127695
0.127645
0.127596
0.127548
0.1275
0.127453
0.127406
0.12736
0.127314
0.127269
0.127224
0.12718
0.127136
0.127093
0.12705
0.127008
0.126966
0.126925
0.126884
0.126843
0.126803
0.126764
0.126725
0.126687
0.126649
0.126611
0.126574
0.126537
0.126501
0.126465
0.12643
0.126395
0.126361
0.126327
0.126293
0.12626
0.126227
0.126195
0.126163
0.126132
0.126101
0.126071
0.126041
0.126011
0.125982
0.125953
0.125925
0.125897
0.12587
0.125843
0.125816
0.12579
0.125765
0.12574
0.125715
0.125691
0.125667
0.125644
0.125621
0.125599
0.125577
0.125556
0.125535
0.125515
0.125495
0.125476
0.125457
0.125439
0.125421
0.125404
0.125388
0.125372
0.125356
0.125341
0.125327
0.125313
0.1253
0.125287
0.125275
0.125263
0.125252
0.125242
0.125232
0.125223
0.125215
0.125207
0.125199
0.125192
0.125186
0.12518
0.125175
0.12517
0.125166
0.125162
0.125159
0.125156
0.125154
0.125152
0.12515
0.125149
0.125148
0.125148
0.125147
0.125147
0.125147
0.125146
0.125146
0.125146
0.125146
0.1
0.100003
0.100009
0.10002
0.100034
0.100053
0.100074
0.1001
0.100129
0.100162
0.100199
0.100239
0.100282
0.100329
0.10038
0.100435
0.100494
0.100557
0.100623
0.100694
0.10077
0.10085
0.100935
0.101024
0.101119
0.101218
0.101323
0.101433
0.101549
0.10167
0.101797
0.101929
0.102068
0.102213
0.102363
0.10252
0.102684
0.102853
0.10303
0.103213
0.103403
0.1036
0.103804
0.104016
0.104235
0.104461
0.104696
0.104938
0.105189
0.105447
0.105715
0.10599
0.106275
0.106568
0.106869
0.10718
0.1075
0.107828
0.108166
0.108512
0.108868
0.109233
0.109606
0.109988
0.110379
0.110779
0.111187
0.111603
0.112028
0.11246
0.112901
0.113349
0.113804
0.114266
0.114734
0.115209
0.11569
0.116177
0.116668
0.117165
0.117665
0.11817
0.118678
0.119189
0.119702
0.120216
0.120732
0.121249
0.121765
0.122282
0.122797
0.12331
0.123821
0.124329
0.124834
0.125335
0.125831
0.126322
0.126807
0.127287
0.12776
0.128225
0.128683
0.129133
0.129575
0.130008
0.130432
0.130847
0.131252
0.131647
0.132032
0.132407
0.132771
0.133124
0.133467
0.133799
0.13412
0.134429
0.134728
0.135016
0.135292
0.135558
0.135812
0.136056
0.136288
0.13651
0.136721
0.136922
0.137112
0.137292
0.137462
0.137622
0.137772
0.137913
0.138044
0.138166
0.138278
0.138382
0.138478
0.138564
0.138643
0.138713
0.138776
0.138831
0.138878
0.138919
0.138952
0.138978
0.138998
0.139012
0.139019
0.139021
0.139016
0.139007
0.138991
0.138971
0.138945
0.138915
0.13888
0.13884
0.138797
0.138749
0.138697
0.138642
0.138582
0.13852
0.138454
0.138385
0.138312
0.138237
0.13816
0.138079
0.137996
0.137911
0.137824
0.137734
0.137643
0.137549
0.137454
0.137358
0.137259
0.13716
0.137059
0.136957
0.136854
0.136749
0.136644
0.136538
0.136431
0.136324
0.136216
0.136108
0.135999
0.135889
0.13578
0.13567
0.13556
0.135449
0.135339
0.135229
0.135118
0.135008
0.134898
0.134788
0.134678
0.134569
0.13446
0.134351
0.134242
0.134134
0.134027
0.133919
0.133813
0.133706
0.133601
0.133496
0.133391
0.133287
0.133184
0.133081
0.132979
0.132878
0.132777
0.132677
0.132578
0.13248
0.132382
0.132285
0.132189
0.132094
0.131999
0.131906
0.131813
0.131721
0.131629
0.131539
0.131449
0.13136
0.131272
0.131185
0.131099
0.131013
0.130928
0.130844
0.130761
0.130679
0.130597
0.130517
0.130437
0.130358
0.130279
0.130202
0.130125
0.130049
0.129974
0.1299
0.129826
0.129753
0.129681
0.12961
0.12954
0.12947
0.129401
0.129332
0.129265
0.129198
0.129132
0.129067
0.129002
0.128938
0.128875
0.128812
0.12875
0.128689
0.128628
0.128568
0.128509
0.128451
0.128393
0.128335
0.128279
0.128222
0.128167
0.128112
0.128058
0.128004
0.127951
0.127899
0.127847
0.127795
0.127745
0.127694
0.127645
0.127596
0.127547
0.127499
0.127451
0.127405
0.127358
0.127312
0.127267
0.127222
0.127178
0.127134
0.12709
0.127047
0.127005
0.126963
0.126922
0.126881
0.12684
0.1268
0.12676
0.126721
0.126683
0.126645
0.126607
0.12657
0.126533
0.126496
0.12646
0.126425
0.12639
0.126355
0.126321
0.126287
0.126254
0.126221
0.126189
0.126157
0.126125
0.126094
0.126063
0.126033
0.126003
0.125974
0.125945
0.125917
0.125889
0.125861
0.125834
0.125807
0.125781
0.125755
0.12573
0.125705
0.125681
0.125657
0.125634
0.125611
0.125588
0.125566
0.125545
0.125524
0.125503
0.125483
0.125464
0.125445
0.125427
0.125409
0.125391
0.125374
0.125358
0.125343
0.125327
0.125313
0.125299
0.125285
0.125272
0.12526
0.125248
0.125237
0.125227
0.125217
0.125207
0.125198
0.12519
0.125183
0.125176
0.125169
0.125163
0.125158
0.125153
0.125148
0.125145
0.125141
0.125138
0.125136
0.125134
0.125132
0.125131
0.12513
0.125129
0.125128
0.125128
0.125128
0.125127
0.125127
0.125127
0.125127
0.1
0.100003
0.100009
0.10002
0.100034
0.100052
0.100074
0.1001
0.100129
0.100161
0.100198
0.100238
0.100281
0.100328
0.100379
0.100433
0.100492
0.100554
0.100621
0.100692
0.100767
0.100846
0.100931
0.10102
0.101114
0.101213
0.101318
0.101428
0.101543
0.101664
0.10179
0.101922
0.102061
0.102205
0.102355
0.102512
0.102674
0.102844
0.10302
0.103203
0.103392
0.103589
0.103793
0.104004
0.104222
0.104449
0.104683
0.104925
0.105175
0.105434
0.105701
0.105976
0.10626
0.106553
0.106855
0.107166
0.107486
0.107814
0.108152
0.108499
0.108855
0.10922
0.109593
0.109976
0.110368
0.110768
0.111177
0.111594
0.11202
0.112453
0.112894
0.113343
0.1138
0.114263
0.114733
0.115209
0.115692
0.11618
0.116673
0.117171
0.117673
0.11818
0.118689
0.119202
0.119717
0.120233
0.120751
0.12127
0.121788
0.122306
0.122823
0.123338
0.123851
0.124361
0.124868
0.12537
0.125868
0.126361
0.126848
0.127328
0.127803
0.128269
0.128729
0.12918
0.129623
0.130057
0.130482
0.130897
0.131303
0.131699
0.132084
0.132459
0.132824
0.133177
0.13352
0.133852
0.134173
0.134482
0.134781
0.135068
0.135344
0.13561
0.135864
0.136107
0.136339
0.136561
0.136771
0.136971
0.137161
0.137341
0.13751
0.137669
0.137819
0.137958
0.138089
0.13821
0.138322
0.138425
0.138519
0.138605
0.138683
0.138753
0.138815
0.138869
0.138916
0.138955
0.138988
0.139014
0.139033
0.139046
0.139053
0.139054
0.139048
0.139038
0.139022
0.139001
0.138975
0.138944
0.138908
0.138868
0.138824
0.138775
0.138723
0.138667
0.138607
0.138544
0.138477
0.138408
0.138335
0.13826
0.138181
0.1381
0.138017
0.137931
0.137844
0.137754
0.137662
0.137568
0.137473
0.137376
0.137277
0.137177
0.137076
0.136973
0.13687
0.136765
0.13666
0.136554
0.136446
0.136339
0.13623
0.136122
0.136012
0.135903
0.135793
0.135683
0.135572
0.135462
0.135351
0.135241
0.13513
0.13502
0.13491
0.134799
0.13469
0.13458
0.134471
0.134361
0.134253
0.134145
0.134037
0.133929
0.133822
0.133716
0.13361
0.133505
0.1334
0.133296
0.133193
0.13309
0.132988
0.132886
0.132786
0.132686
0.132586
0.132488
0.13239
0.132293
0.132197
0.132101
0.132007
0.131913
0.13182
0.131728
0.131636
0.131546
0.131456
0.131367
0.131279
0.131191
0.131105
0.131019
0.130934
0.13085
0.130767
0.130685
0.130603
0.130522
0.130442
0.130363
0.130284
0.130207
0.13013
0.130054
0.129979
0.129904
0.129831
0.129758
0.129685
0.129614
0.129543
0.129473
0.129404
0.129336
0.129268
0.129201
0.129135
0.12907
0.129005
0.128941
0.128877
0.128814
0.128752
0.128691
0.12863
0.12857
0.128511
0.128452
0.128394
0.128336
0.12828
0.128223
0.128168
0.128113
0.128058
0.128004
0.127951
0.127898
0.127846
0.127795
0.127744
0.127693
0.127643
0.127594
0.127545
0.127497
0.127449
0.127402
0.127356
0.12731
0.127264
0.127219
0.127174
0.12713
0.127087
0.127043
0.127001
0.126959
0.126917
0.126876
0.126835
0.126795
0.126755
0.126716
0.126677
0.126638
0.1266
0.126563
0.126526
0.126489
0.126453
0.126417
0.126382
0.126347
0.126313
0.126279
0.126245
0.126212
0.126179
0.126147
0.126115
0.126084
0.126053
0.126023
0.125992
0.125963
0.125934
0.125905
0.125877
0.125849
0.125821
0.125794
0.125768
0.125742
0.125716
0.125691
0.125667
0.125642
0.125619
0.125595
0.125573
0.12555
0.125529
0.125507
0.125487
0.125466
0.125447
0.125427
0.125409
0.12539
0.125373
0.125356
0.125339
0.125323
0.125308
0.125293
0.125278
0.125265
0.125251
0.125239
0.125227
0.125215
0.125205
0.125194
0.125185
0.125175
0.125167
0.125159
0.125152
0.125145
0.125139
0.125133
0.125128
0.125123
0.125119
0.125116
0.125113
0.12511
0.125108
0.125106
0.125104
0.125103
0.125102
0.125102
0.125101
0.125101
0.1251
0.1251
0.1251
0.1251
0.1
0.100003
0.100009
0.10002
0.100034
0.100052
0.100074
0.100099
0.100128
0.100161
0.100197
0.100236
0.100279
0.100326
0.100377
0.100431
0.100489
0.100551
0.100617
0.100688
0.100763
0.100842
0.100926
0.101015
0.101108
0.101207
0.101311
0.101421
0.101535
0.101656
0.101782
0.101913
0.102051
0.102195
0.102344
0.1025
0.102663
0.102832
0.103007
0.103189
0.103378
0.103574
0.103778
0.103988
0.104207
0.104433
0.104666
0.104908
0.105158
0.105416
0.105683
0.105958
0.106242
0.106535
0.106837
0.107148
0.107467
0.107796
0.108134
0.108481
0.108838
0.109203
0.109577
0.109961
0.110353
0.110754
0.111164
0.111582
0.112009
0.112443
0.112886
0.113336
0.113794
0.114259
0.114731
0.115209
0.115693
0.116183
0.116679
0.117179
0.117684
0.118192
0.118704
0.119219
0.119736
0.120255
0.120776
0.121297
0.121818
0.122338
0.122858
0.123375
0.12389
0.124403
0.124911
0.125416
0.125916
0.126411
0.1269
0.127382
0.127858
0.128327
0.128787
0.12924
0.129684
0.130119
0.130545
0.130962
0.131368
0.131765
0.132151
0.132526
0.132891
0.133245
0.133588
0.13392
0.134241
0.13455
0.134849
0.135136
0.135412
0.135677
0.13593
0.136173
0.136405
0.136625
0.136835
0.137035
0.137224
0.137402
0.137571
0.137729
0.137878
0.138017
0.138146
0.138266
0.138377
0.13848
0.138573
0.138658
0.138735
0.138804
0.138865
0.138918
0.138964
0.139003
0.139034
0.139059
0.139078
0.13909
0.139096
0.139095
0.13909
0.139078
0.139061
0.139039
0.139012
0.138981
0.138944
0.138904
0.138859
0.138809
0.138756
0.138699
0.138639
0.138575
0.138508
0.138438
0.138364
0.138288
0.138209
0.138128
0.138044
0.137958
0.137869
0.137779
0.137686
0.137592
0.137496
0.137399
0.1373
0.137199
0.137097
0.136995
0.136891
0.136786
0.13668
0.136573
0.136466
0.136358
0.136249
0.13614
0.13603
0.13592
0.13581
0.135699
0.135589
0.135478
0.135367
0.135256
0.135146
0.135035
0.134924
0.134814
0.134704
0.134594
0.134484
0.134375
0.134266
0.134158
0.134049
0.133942
0.133835
0.133728
0.133622
0.133517
0.133412
0.133308
0.133204
0.133101
0.132999
0.132897
0.132796
0.132696
0.132597
0.132498
0.1324
0.132303
0.132206
0.132111
0.132016
0.131922
0.131829
0.131737
0.131645
0.131554
0.131464
0.131375
0.131287
0.131199
0.131113
0.131027
0.130942
0.130858
0.130774
0.130692
0.13061
0.130529
0.130449
0.130369
0.130291
0.130213
0.130136
0.13006
0.129984
0.12991
0.129836
0.129763
0.12969
0.129619
0.129548
0.129478
0.129409
0.12934
0.129272
0.129205
0.129139
0.129073
0.129008
0.128944
0.12888
0.128817
0.128755
0.128693
0.128632
0.128572
0.128512
0.128453
0.128395
0.128337
0.12828
0.128224
0.128168
0.128113
0.128058
0.128004
0.12795
0.127897
0.127845
0.127793
0.127742
0.127691
0.127641
0.127592
0.127543
0.127494
0.127446
0.127399
0.127352
0.127306
0.12726
0.127214
0.12717
0.127125
0.127081
0.127038
0.126995
0.126953
0.126911
0.126869
0.126828
0.126788
0.126747
0.126708
0.126669
0.12663
0.126592
0.126554
0.126516
0.126479
0.126443
0.126407
0.126371
0.126336
0.126301
0.126267
0.126233
0.1262
0.126167
0.126134
0.126102
0.12607
0.126039
0.126008
0.125978
0.125948
0.125918
0.125889
0.12586
0.125832
0.125804
0.125777
0.12575
0.125724
0.125698
0.125672
0.125647
0.125623
0.125599
0.125575
0.125552
0.125529
0.125507
0.125486
0.125464
0.125444
0.125424
0.125404
0.125385
0.125366
0.125348
0.125331
0.125314
0.125297
0.125281
0.125266
0.125251
0.125237
0.125224
0.125211
0.125198
0.125187
0.125175
0.125165
0.125155
0.125145
0.125136
0.125128
0.12512
0.125113
0.125107
0.125101
0.125095
0.12509
0.125086
0.125082
0.125079
0.125076
0.125073
0.125071
0.125069
0.125068
0.125067
0.125066
0.125065
0.125065
0.125065
0.125064
0.125064
0.125064
0.1
0.100003
0.100009
0.10002
0.100034
0.100052
0.100073
0.100098
0.100127
0.100159
0.100195
0.100235
0.100278
0.100324
0.100374
0.100428
0.100486
0.100548
0.100613
0.100683
0.100758
0.100837
0.10092
0.101008
0.101102
0.1012
0.101303
0.101412
0.101526
0.101646
0.101771
0.101902
0.102039
0.102182
0.102331
0.102487
0.102648
0.102817
0.102991
0.103173
0.103361
0.103557
0.10376
0.10397
0.104187
0.104413
0.104646
0.104887
0.105137
0.105395
0.105661
0.105936
0.10622
0.106513
0.106814
0.107125
0.107445
0.107774
0.108112
0.10846
0.108816
0.109182
0.109557
0.109941
0.110335
0.110737
0.111148
0.111567
0.111995
0.112431
0.112876
0.113328
0.113787
0.114254
0.114728
0.115209
0.115695
0.116188
0.116686
0.117189
0.117696
0.118207
0.118722
0.11924
0.11976
0.120282
0.120806
0.12133
0.121854
0.122377
0.122899
0.12342
0.123938
0.124453
0.124965
0.125472
0.125975
0.126472
0.126963
0.127448
0.127926
0.128397
0.128859
0.129314
0.129759
0.130196
0.130623
0.131041
0.131449
0.131846
0.132233
0.132609
0.132974
0.133328
0.133672
0.134004
0.134324
0.134634
0.134932
0.135219
0.135494
0.135759
0.136012
0.136254
0.136484
0.136704
0.136914
0.137112
0.1373
0.137478
0.137645
0.137803
0.13795
0.138088
0.138216
0.138335
0.138445
0.138547
0.138639
0.138723
0.138799
0.138866
0.138926
0.138978
0.139023
0.13906
0.139091
0.139115
0.139132
0.139143
0.139148
0.139147
0.13914
0.139127
0.139109
0.139086
0.139059
0.139026
0.138989
0.138947
0.138901
0.138851
0.138797
0.138739
0.138678
0.138613
0.138545
0.138474
0.1384
0.138323
0.138243
0.138161
0.138076
0.13799
0.1379
0.137809
0.137716
0.137621
0.137525
0.137427
0.137327
0.137226
0.137124
0.13702
0.136916
0.13681
0.136704
0.136597
0.136489
0.13638
0.136271
0.136162
0.136052
0.135941
0.135831
0.13572
0.135609
0.135498
0.135386
0.135275
0.135164
0.135053
0.134942
0.134831
0.134721
0.134611
0.134501
0.134391
0.134282
0.134173
0.134065
0.133957
0.13385
0.133743
0.133637
0.133531
0.133426
0.133321
0.133217
0.133114
0.133012
0.13291
0.132809
0.132708
0.132609
0.13251
0.132412
0.132314
0.132218
0.132122
0.132027
0.131933
0.131839
0.131747
0.131655
0.131564
0.131474
0.131385
0.131296
0.131209
0.131122
0.131036
0.13095
0.130866
0.130782
0.1307
0.130618
0.130536
0.130456
0.130376
0.130298
0.13022
0.130143
0.130066
0.12999
0.129916
0.129842
0.129768
0.129696
0.129624
0.129553
0.129483
0.129413
0.129344
0.129276
0.129209
0.129142
0.129076
0.129011
0.128946
0.128883
0.128819
0.128757
0.128695
0.128634
0.128573
0.128513
0.128454
0.128396
0.128338
0.12828
0.128223
0.128167
0.128112
0.128057
0.128002
0.127949
0.127895
0.127843
0.127791
0.127739
0.127688
0.127638
0.127588
0.127539
0.12749
0.127441
0.127394
0.127347
0.1273
0.127254
0.127208
0.127163
0.127118
0.127074
0.12703
0.126987
0.126944
0.126902
0.12686
0.126818
0.126777
0.126737
0.126697
0.126657
0.126618
0.12658
0.126541
0.126504
0.126466
0.126429
0.126393
0.126357
0.126321
0.126286
0.126251
0.126217
0.126183
0.12615
0.126117
0.126084
0.126052
0.12602
0.125989
0.125958
0.125928
0.125898
0.125868
0.125839
0.125811
0.125783
0.125755
0.125727
0.125701
0.125674
0.125648
0.125623
0.125598
0.125573
0.125549
0.125525
0.125502
0.12548
0.125458
0.125436
0.125415
0.125394
0.125374
0.125354
0.125335
0.125317
0.125299
0.125281
0.125265
0.125248
0.125232
0.125217
0.125203
0.125189
0.125175
0.125162
0.12515
0.125138
0.125127
0.125117
0.125107
0.125097
0.125089
0.125081
0.125073
0.125066
0.12506
0.125054
0.125048
0.125044
0.12504
0.125036
0.125033
0.12503
0.125027
0.125025
0.125024
0.125023
0.125022
0.125021
0.12502
0.12502
0.125019
0.125019
0.125019
0.1
0.100003
0.100009
0.100019
0.100034
0.100051
0.100073
0.100098
0.100126
0.100158
0.100194
0.100233
0.100275
0.100321
0.100371
0.100425
0.100482
0.100543
0.100609
0.100678
0.100752
0.10083
0.100913
0.101001
0.101093
0.101191
0.101294
0.101402
0.101515
0.101634
0.101759
0.101889
0.102025
0.102167
0.102316
0.10247
0.102631
0.102799
0.102973
0.103153
0.103341
0.103536
0.103738
0.103947
0.104164
0.104389
0.104622
0.104862
0.105112
0.105369
0.105635
0.10591
0.106193
0.106486
0.106787
0.107098
0.107418
0.107747
0.108086
0.108434
0.108791
0.109158
0.109533
0.109918
0.110313
0.110716
0.111128
0.111549
0.111979
0.112417
0.112863
0.113317
0.113779
0.114248
0.114725
0.115208
0.115697
0.116193
0.116694
0.1172
0.11771
0.118225
0.118743
0.119265
0.119788
0.120314
0.120841
0.121368
0.121896
0.122423
0.122949
0.123473
0.123995
0.124513
0.125028
0.125538
0.126044
0.126544
0.127038
0.127526
0.128006
0.128479
0.128944
0.129401
0.129849
0.130287
0.130716
0.131135
0.131544
0.131942
0.13233
0.132706
0.133072
0.133427
0.13377
0.134103
0.134423
0.134733
0.13503
0.135317
0.135592
0.135855
0.136108
0.136349
0.136579
0.136798
0.137006
0.137204
0.137391
0.137567
0.137733
0.137889
0.138036
0.138172
0.138299
0.138417
0.138526
0.138625
0.138716
0.138799
0.138873
0.13894
0.138998
0.139049
0.139092
0.139128
0.139158
0.13918
0.139196
0.139206
0.139209
0.139207
0.139199
0.139185
0.139166
0.139142
0.139113
0.139079
0.13904
0.138998