# vtk DataFile Version 3.0
LBM Fluid Grid
ASCII
DATASET STRUCTURED_POINTS
DIMENSIONS 400 150 1
ORIGIN 0 0 0
SPACING 1 1 1
POINT_DATA 60000
SCALARS VelocityMagnitude double 1
LOOKUP_TABLE default
0.1
0.10001
0.100023
0.100039
0.100058
0.10008
0.100105
0.100132
0.100161
0.100193
0.100229
0.100267
0.100308
0.100353
0.100402
0.100455
0.100513
0.100574
0.100641
0.100713
0.10079
0.100872
0.100959
0.101051
0.101149
0.101253
0.101361
0.101475
0.101594
0.101719
0.101849
0.101984
0.102125
0.102271
0.102423
0.10258
0.102744
0.102913
0.103089
0.103271
0.10346
0.103656
0.103859
0.10407
0.104288
0.104514
0.104748
0.10499
0.10524
0.105499
0.105766
0.106042
0.106327
0.106621
0.106923
0.107234
0.107554
0.107882
0.10822
0.108566
0.10892
0.109284
0.109656
0.110036
0.110425
0.110822
0.111228
0.111641
0.112063
0.112492
0.112929
0.113374
0.113825
0.114284
0.114749
0.115221
0.115699
0.116182
0.116671
0.117164
0.117662
0.118163
0.118668
0.119176
0.119686
0.120198
0.120711
0.121225
0.121739
0.122252
0.122764
0.123275
0.123783
0.124288
0.124789
0.125287
0.12578
0.126268
0.126751
0.127227
0.127697
0.12816
0.128615
0.129063
0.129503
0.129934
0.130356
0.130769
0.131172
0.131566
0.13195
0.132324
0.132688
0.133041
0.133383
0.133715
0.134036
0.134346
0.134645
0.134933
0.135211
0.135477
0.135732
0.135976
0.13621
0.136433
0.136645
0.136846
0.137037
0.137218
0.137389
0.13755
0.137701
0.137842
0.137974
0.138096
0.13821
0.138315
0.138411
0.138498
0.138578
0.138649
0.138713
0.138769
0.138818
0.138859
0.138894
0.138921
0.138943
0.138958
0.138966
0.138969
0.138966
0.138958
0.138944
0.138925
0.138901
0.138872
0.138838
0.1388
0.138758
0.138711
0.13866
0.138606
0.138548
0.138486
0.138421
0.138353
0.138281
0.138207
0.13813
0.13805
0.137968
0.137883
0.137796
0.137707
0.137616
0.137524
0.137429
0.137333
0.137235
0.137136
0.137036
0.136934
0.136831
0.136728
0.136623
0.136518
0.136411
0.136304
0.136197
0.136089
0.13598
0.135871
0.135762
0.135652
0.135543
0.135433
0.135323
0.135213
0.135102
0.134992
0.134882
0.134772
0.134663
0.134553
0.134444
0.134335
0.134226
0.134118
0.13401
0.133903
0.133796
0.13369
0.133584
0.133479
0.133374
0.13327
0.133166
0.133064
0.132962
0.13286
0.13276
0.13266
0.13256
0.132462
0.132364
0.132267
0.132171
0.132076
0.131981
0.131887
0.131794
0.131702
0.131611
0.13152
0.131431
0.131342
0.131253
0.131166
0.13108
0.130994
0.130909
0.130825
0.130742
0.130659
0.130578
0.130497
0.130417
0.130338
0.130259
0.130182
0.130105
0.130029
0.129954
0.12988
0.129806
0.129734
0.129662
0.12959
0.12952
0.129451
0.129382
0.129314
0.129246
0.12918
0.129114
0.129049
0.128984
0.12892
0.128857
0.128795
0.128733
0.128672
0.128612
0.128552
0.128493
0.128435
0.128377
0.12832
0.128264
0.128208
0.128153
0.128098
0.128044
0.127991
0.127938
0.127886
0.127835
0.127784
0.127733
0.127683
0.127634
0.127586
0.127537
0.12749
0.127443
0.127396
0.12735
0.127305
0.12726
0.127216
0.127172
0.127128
0.127085
0.127043
0.127001
0.12696
0.126919
0.126878
0.126838
0.126799
0.12676
0.126721
0.126683
0.126645
0.126608
0.126571
0.126535
0.126499
0.126464
0.126429
0.126394
0.12636
0.126327
0.126293
0.126261
0.126228
0.126197
0.126165
0.126134
0.126104
0.126074
0.126044
0.126015
0.125986
0.125958
0.12593
0.125902
0.125875
0.125849
0.125823
0.125797
0.125772
0.125747
0.125723
0.125699
0.125676
0.125653
0.125631
0.125609
0.125587
0.125566
0.125546
0.125526
0.125507
0.125488
0.125469
0.125452
0.125434
0.125417
0.125401
0.125385
0.12537
0.125356
0.125341
0.125328
0.125315
0.125303
0.125291
0.125279
0.125269
0.125258
0.125249
0.12524
0.125231
0.125224
0.125216
0.125209
0.125203
0.125198
0.125192
0.125188
0.125184
0.12518
0.125177
0.125174
0.125172
0.12517
0.125168
0.125167
0.125166
0.125165
0.125164
0.125164
0.125163
0.125163
0.125162
0.125162
0.125162
0.1
0.10001
0.100023
0.100039
0.100058
0.10008
0.100105
0.100132
0.100161
0.100194
0.100229
0.100267
0.100308
0.100354
0.100402
0.100455
0.100513
0.100575
0.100642
0.100713
0.10079
0.100872
0.100959
0.101052
0.10115
0.101253
0.101362
0.101476
0.101595
0.10172
0.10185
0.101985
0.102126
0.102272
0.102424
0.102582
0.102745
0.102915
0.10309
0.103273
0.103462
0.103658
0.103861
0.104071
0.10429
0.104516
0.104749
0.104992
0.105242
0.105501
0.105768
0.106044
0.106329
0.106623
0.106925
0.107236
0.107556
0.107884
0.108221
0.108567
0.108922
0.109285
0.109657
0.110038
0.110427
0.110824
0.111229
0.111642
0.112064
0.112493
0.11293
0.113374
0.113826
0.114284
0.114749
0.115221
0.115698
0.116181
0.11667
0.117163
0.117661
0.118162
0.118667
0.119174
0.119684
0.120196
0.120709
0.121222
0.121736
0.122249
0.12276
0.123271
0.123778
0.124283
0.124785
0.125282
0.125775
0.126263
0.126745
0.127221
0.127691
0.128153
0.128609
0.129056
0.129496
0.129927
0.130349
0.130762
0.131165
0.131559
0.131943
0.132317
0.13268
0.133033
0.133376
0.133708
0.134029
0.134339
0.134638
0.134926
0.135203
0.135469
0.135725
0.135969
0.136203
0.136425
0.136638
0.136839
0.13703
0.137211
0.137382
0.137543
0.137694
0.137835
0.137967
0.13809
0.138204
0.138309
0.138405
0.138493
0.138572
0.138644
0.138707
0.138763
0.138812
0.138854
0.138888
0.138916
0.138938
0.138953
0.138962
0.138965
0.138962
0.138953
0.13894
0.138921
0.138897
0.138868
0.138834
0.138796
0.138754
0.138707
0.138657
0.138602
0.138544
0.138483
0.138418
0.138349
0.138278
0.138204
0.138127
0.138047
0.137965
0.13788
0.137793
0.137705
0.137614
0.137521
0.137426
0.13733
0.137233
0.137134
0.137033
0.136932
0.136829
0.136725
0.136621
0.136515
0.136409
0.136302
0.136195
0.136087
0.135978
0.135869
0.13576
0.135651
0.135541
0.135431
0.135321
0.135211
0.135101
0.134991
0.134881
0.134771
0.134661
0.134552
0.134442
0.134333
0.134225
0.134117
0.134009
0.133901
0.133795
0.133688
0.133582
0.133477
0.133372
0.133268
0.133165
0.133062
0.13296
0.132859
0.132758
0.132658
0.132559
0.132461
0.132363
0.132266
0.13217
0.132075
0.13198
0.131886
0.131793
0.131701
0.13161
0.131519
0.13143
0.131341
0.131252
0.131165
0.131079
0.130993
0.130908
0.130824
0.130741
0.130658
0.130577
0.130496
0.130416
0.130337
0.130258
0.130181
0.130104
0.130028
0.129953
0.129879
0.129806
0.129733
0.129661
0.12959
0.12952
0.12945
0.129381
0.129313
0.129246
0.129179
0.129113
0.129048
0.128984
0.12892
0.128857
0.128795
0.128733
0.128672
0.128612
0.128552
0.128493
0.128435
0.128377
0.12832
0.128264
0.128208
0.128153
0.128098
0.128044
0.127991
0.127938
0.127886
0.127835
0.127784
0.127733
0.127683
0.127634
0.127586
0.127538
0.12749
0.127443
0.127397
0.127351
0.127305
0.12726
0.127216
0.127172
0.127129
0.127086
0.127043
0.127002
0.12696
0.126919
0.126879
0.126839
0.126799
0.12676
0.126722
0.126684
0.126646
0.126609
0.126572
0.126536
0.1265
0.126465
0.12643
0.126395
0.126361
0.126328
0.126294
0.126262
0.12623
0.126198
0.126166
0.126135
0.126105
0.126075
0.126045
0.126016
0.125987
0.125959
0.125931
0.125904
0.125877
0.125851
0.125825
0.125799
0.125774
0.125749
0.125725
0.125701
0.125678
0.125655
0.125633
0.125611
0.12559
0.125569
0.125548
0.125528
0.125509
0.12549
0.125472
0.125454
0.125437
0.12542
0.125404
0.125388
0.125373
0.125358
0.125344
0.125331
0.125318
0.125305
0.125294
0.125282
0.125272
0.125262
0.125252
0.125243
0.125235
0.125227
0.125219
0.125213
0.125207
0.125201
0.125196
0.125191
0.125187
0.125183
0.12518
0.125177
0.125175
0.125173
0.125172
0.12517
0.125169
0.125169
0.125168
0.125167
0.125167
0.125167
0.125166
0.125166
0.125166
0.1
0.10001
0.100023
0.100039
0.100058
0.10008
0.100105
0.100132
0.100161
0.100193
0.100229
0.100267
0.100308
0.100353
0.100402
0.100455
0.100513
0.100574
0.100641
0.100713
0.10079
0.100872
0.100959
0.101051
0.101149
0.101253
0.101361
0.101475
0.101594
0.101719
0.101849
0.101984
0.102125
0.102271
0.102423
0.10258
0.102744
0.102913
0.103089
0.103271
0.10346
0.103656
0.103859
0.10407
0.104288
0.104514
0.104748
0.10499
0.10524
0.105499
0.105766
0.106042
0.106327
0.106621
0.106923
0.107234
0.107554
0.107882
0.10822
0.108566
0.10892
0.109284
0.109656
0.110036
0.110425
0.110822
0.111228
0.111641
0.112063
0.112492
0.112929
0.113374
0.113825
0.114284
0.114749
0.115221
0.115699
0.116182
0.116671
0.117164
0.117662
0.118163
0.118668
0.119176
0.119686
0.120198
0.120711
0.121225
0.121739
0.122252
0.122764
0.123275
0.123783
0.124288
0.124789
0.125287
0.12578
0.126268
0.126751
0.127227
0.127697
0.12816
0.128615
0.129063
0.129503
0.129934
0.130356
0.130769
0.131172
0.131566
0.13195
0.132324
0.132688
0.133041
0.133383
0.133715
0.134036
0.134346
0.134645
0.134933
0.135211
0.135477
0.135732
0.135976
0.13621
0.136433
0.136645
0.136846
0.137037
0.137218
0.137389
0.13755
0.137701
0.137842
0.137974
0.138096
0.13821
0.138315
0.138411
0.138498
0.138578
0.138649
0.138713
0.138769
0.138818
0.138859
0.138894
0.138921
0.138943
0.138958
0.138966
0.138969
0.138966
0.138958
0.138944
0.138925
0.138901
0.138872
0.138838
0.1388
0.138758
0.138711
0.13866
0.138606
0.138548
0.138486
0.138421
0.138353
0.138281
0.138207
0.13813
0.13805
0.137968
0.137883
0.137796
0.137707
0.137616
0.137524
0.137429
0.137333
0.137235
0.137136
0.137036
0.136934
0.136831
0.136728
0.136623
0.136518
0.136411
0.136304
0.136197
0.136089
0.13598
0.135871
0.135762
0.135652
0.135543
0.135433
0.135323
0.135213
0.135102
0.134992
0.134882
0.134772
0.134663
0.134553
0.134444
0.134335
0.134226
0.134118
0.13401
0.133903
0.133796
0.13369
0.133584
0.133479
0.133374
0.13327
0.133166
0.133064
0.132962
0.13286
0.13276
0.13266
0.13256
0.132462
0.132364
0.132267
0.132171
0.132076
0.131981
0.131887
0.131794
0.131702
0.131611
0.13152
0.131431
0.131342
0.131253
0.131166
0.13108
0.130994
0.130909
0.130825
0.130742
0.130659
0.130578
0.130497
0.130417
0.130338
0.130259
0.130182
0.130105
0.130029
0.129954
0.12988
0.129806
0.129734
0.129662
0.12959
0.12952
0.129451
0.129382
0.129314
0.129246
0.12918
0.129114
0.129049
0.128984
0.12892
0.128857
0.128795
0.128733
0.128672
0.128612
0.128552
0.128493
0.128435
0.128377
0.12832
0.128264
0.128208
0.128153
0.128098
0.128044
0.127991
0.127938
0.127886
0.127835
0.127784
0.127733
0.127683
0.127634
0.127586
0.127537
0.12749
0.127443
0.127396
0.12735
0.127305
0.12726
0.127216
0.127172
0.127128
0.127085
0.127043
0.127001
0.12696
0.126919
0.126878
0.126838
0.126799
0.12676
0.126721
0.126683
0.126645
0.126608
0.126571
0.126535
0.126499
0.126464
0.126429
0.126394
0.12636
0.126327
0.126293
0.126261
0.126228
0.126197
0.126165
0.126134
0.126104
0.126074
0.126044
0.126015
0.125986
0.125958
0.12593
0.125902
0.125875
0.125849
0.125823
0.125797
0.125772
0.125747
0.125723
0.125699
0.125676
0.125653
0.125631
0.125609
0.125587
0.125567
0.125546
0.125526
0.125507
0.125488
0.125469
0.125452
0.125434
0.125417
0.125401
0.125385
0.12537
0.125356
0.125341
0.125328
0.125315
0.125303
0.125291
0.125279
0.125269
0.125259
0.125249
0.12524
0.125231
0.125224
0.125216
0.125209
0.125203
0.125198
0.125192
0.125188
0.125184
0.12518
0.125177
0.125174
0.125172
0.12517
0.125168
0.125167
0.125166
0.125165
0.125164
0.125164
0.125163
0.125163
0.125162
0.125162
0.125162
0.1
0.10001
0.100023
0.100039
0.100058
0.10008
0.100104
0.100131
0.100161
0.100193
0.100228
0.100266
0.100308
0.100353
0.100401
0.100454
0.100512
0.100573
0.10064
0.100712
0.100788
0.10087
0.100957
0.10105
0.101147
0.101251
0.101359
0.101473
0.101592
0.101716
0.101846
0.101981
0.102122
0.102268
0.102419
0.102576
0.10274
0.102909
0.103085
0.103267
0.103455
0.103651
0.103854
0.104065
0.104283
0.104508
0.104742
0.104984
0.105234
0.105493
0.10576
0.106036
0.106321
0.106615
0.106917
0.107228
0.107548
0.107876
0.108214
0.10856
0.108915
0.109278
0.10965
0.110031
0.11042
0.110817
0.111223
0.111637
0.112059
0.112489
0.112926
0.113371
0.113823
0.114283
0.114749
0.115221
0.115699
0.116183
0.116672
0.117167
0.117665
0.118167
0.118673
0.119182
0.119693
0.120206
0.12072
0.121234
0.121749
0.122263
0.122776
0.123287
0.123795
0.124301
0.124804
0.125302
0.125796
0.126285
0.126768
0.127245
0.127715
0.128179
0.128635
0.129083
0.129523
0.129954
0.130377
0.13079
0.131194
0.131588
0.131973
0.132347
0.13271
0.133064
0.133406
0.133738
0.134059
0.134369
0.134668
0.134956
0.135233
0.135499
0.135754
0.135998
0.136232
0.136454
0.136666
0.136867
0.137058
0.137239
0.137409
0.13757
0.13772
0.137862
0.137993
0.138115
0.138229
0.138333
0.138429
0.138516
0.138595
0.138666
0.13873
0.138785
0.138834
0.138875
0.138909
0.138937
0.138958
0.138972
0.138981
0.138983
0.13898
0.138971
0.138957
0.138938
0.138914
0.138884
0.13885
0.138812
0.138769
0.138723
0.138672
0.138617
0.138559
0.138497
0.138431
0.138363
0.138291
0.138217
0.138139
0.138059
0.137977
0.137892
0.137805
0.137716
0.137625
0.137532
0.137437
0.137341
0.137243
0.137144
0.137043
0.136941
0.136838
0.136735
0.13663
0.136524
0.136418
0.136311
0.136203
0.136095
0.135986
0.135877
0.135768
0.135658
0.135548
0.135438
0.135328
0.135218
0.135108
0.134997
0.134887
0.134777
0.134668
0.134558
0.134449
0.13434
0.134231
0.134123
0.134015
0.133907
0.1338
0.133694
0.133588
0.133483
0.133378
0.133274
0.13317
0.133068
0.132965
0.132864
0.132763
0.132663
0.132564
0.132466
0.132368
0.132271
0.132175
0.132079
0.131985
0.131891
0.131798
0.131705
0.131614
0.131523
0.131434
0.131345
0.131256
0.131169
0.131082
0.130997
0.130912
0.130828
0.130744
0.130662
0.13058
0.130499
0.130419
0.13034
0.130262
0.130184
0.130107
0.130031
0.129956
0.129882
0.129808
0.129736
0.129664
0.129592
0.129522
0.129452
0.129383
0.129315
0.129248
0.129181
0.129115
0.12905
0.128986
0.128922
0.128859
0.128796
0.128734
0.128673
0.128613
0.128553
0.128494
0.128436
0.128378
0.128321
0.128264
0.128208
0.128153
0.128099
0.128045
0.127991
0.127938
0.127886
0.127835
0.127784
0.127733
0.127683
0.127634
0.127585
0.127537
0.127489
0.127442
0.127396
0.12735
0.127304
0.127259
0.127215
0.127171
0.127127
0.127084
0.127042
0.127
0.126958
0.126917
0.126876
0.126836
0.126797
0.126758
0.126719
0.126681
0.126643
0.126606
0.126569
0.126532
0.126496
0.126461
0.126426
0.126391
0.126357
0.126323
0.12629
0.126257
0.126225
0.126193
0.126161
0.12613
0.1261
0.126069
0.12604
0.12601
0.125982
0.125953
0.125925
0.125898
0.12587
0.125844
0.125818
0.125792
0.125767
0.125742
0.125717
0.125693
0.12567
0.125647
0.125625
0.125603
0.125581
0.12556
0.125539
0.125519
0.1255
0.125481
0.125462
0.125444
0.125427
0.12541
0.125393
0.125378
0.125362
0.125348
0.125333
0.12532
0.125306
0.125294
0.125282
0.125271
0.12526
0.125249
0.12524
0.125231
0.125222
0.125214
0.125207
0.1252
0.125193
0.125188
0.125182
0.125177
0.125173
0.125169
0.125166
0.125163
0.125161
0.125159
0.125157
0.125156
0.125155
0.125154
0.125153
0.125153
0.125152
0.125152
0.125151
0.125151
0.125151
0.1
0.10001
0.100023
0.100039
0.100058
0.10008
0.100104
0.100131
0.10016
0.100192
0.100227
0.100265
0.100307
0.100352
0.1004
0.100453
0.10051
0.100572
0.100638
0.10071
0.100786
0.100868
0.100955
0.101047
0.101144
0.101247
0.101355
0.101469
0.101588
0.101712
0.101841
0.101976
0.102116
0.102262
0.102413
0.10257
0.102733
0.102902
0.103077
0.103259
0.103448
0.103643
0.103846
0.104056
0.104274
0.104499
0.104733
0.104975
0.105225
0.105483
0.105751
0.106026
0.106311
0.106604
0.106907
0.107218
0.107537
0.107866
0.108204
0.10855
0.108905
0.109269
0.109641
0.110022
0.110412
0.11081
0.111216
0.11163
0.112053
0.112483
0.112922
0.113367
0.11382
0.114281
0.114747
0.115221
0.1157
0.116185
0.116676
0.117171
0.117671
0.118174
0.118681
0.119191
0.119704
0.120218
0.120733
0.121249
0.121765
0.12228
0.122794
0.123307
0.123817
0.124324
0.124828
0.125327
0.125822
0.126312
0.126796
0.127274
0.127746
0.12821
0.128667
0.129116
0.129557
0.129989
0.130412
0.130826
0.13123
0.131625
0.13201
0.132384
0.132748
0.133101
0.133444
0.133776
0.134097
0.134407
0.134706
0.134994
0.13527
0.135536
0.135791
0.136035
0.136268
0.13649
0.136702
0.136903
0.137093
0.137273
0.137443
0.137603
0.137753
0.137894
0.138025
0.138147
0.13826
0.138364
0.138459
0.138546
0.138624
0.138695
0.138758
0.138813
0.138861
0.138901
0.138935
0.138962
0.138983
0.138997
0.139005
0.139007
0.139003
0.138994
0.138979
0.138959
0.138935
0.138905
0.138871
0.138832
0.138789
0.138742
0.13869
0.138635
0.138576
0.138514
0.138448
0.138379
0.138308
0.138233
0.138155
0.138075
0.137992
0.137907
0.137819
0.13773
0.137639
0.137545
0.13745
0.137354
0.137256
0.137156
0.137055
0.136953
0.13685
0.136746
0.136641
0.136535
0.136429
0.136321
0.136214
0.136105
0.135996
0.135887
0.135778
0.135668
0.135558
0.135447
0.135337
0.135227
0.135116
0.135006
0.134896
0.134786
0.134676
0.134566
0.134456
0.134347
0.134239
0.13413
0.134022
0.133915
0.133807
0.133701
0.133595
0.133489
0.133385
0.13328
0.133177
0.133074
0.132972
0.13287
0.132769
0.132669
0.13257
0.132471
0.132374
0.132277
0.13218
0.132085
0.13199
0.131896
0.131803
0.131711
0.131619
0.131528
0.131439
0.131349
0.131261
0.131174
0.131087
0.131001
0.130916
0.130832
0.130749
0.130666
0.130584
0.130503
0.130423
0.130344
0.130265
0.130188
0.130111
0.130035
0.12996
0.129885
0.129812
0.129739
0.129667
0.129595
0.129525
0.129455
0.129386
0.129318
0.12925
0.129184
0.129118
0.129052
0.128988
0.128924
0.128861
0.128798
0.128736
0.128675
0.128615
0.128555
0.128496
0.128437
0.128379
0.128322
0.128265
0.128209
0.128154
0.128099
0.128045
0.127991
0.127939
0.127886
0.127835
0.127783
0.127733
0.127683
0.127633
0.127584
0.127536
0.127488
0.127441
0.127394
0.127348
0.127302
0.127257
0.127213
0.127169
0.127125
0.127082
0.127039
0.126997
0.126955
0.126914
0.126873
0.126833
0.126793
0.126754
0.126715
0.126677
0.126639
0.126601
0.126564
0.126528
0.126492
0.126456
0.126421
0.126386
0.126352
0.126318
0.126284
0.126251
0.126219
0.126187
0.126155
0.126124
0.126093
0.126062
0.126032
0.126003
0.125974
0.125945
0.125917
0.125889
0.125862
0.125835
0.125809
0.125783
0.125757
0.125732
0.125708
0.125684
0.12566
0.125637
0.125614
0.125592
0.12557
0.125549
0.125528
0.125508
0.125488
0.125469
0.12545
0.125432
0.125414
0.125397
0.12538
0.125364
0.125349
0.125334
0.125319
0.125305
0.125292
0.125279
0.125267
0.125256
0.125244
0.125234
0.125224
0.125215
0.125206
0.125198
0.12519
0.125183
0.125177
0.125171
0.125165
0.12516
0.125156
0.125152
0.125148
0.125145
0.125143
0.125141
0.125139
0.125137
0.125136
0.125135
0.125134
0.125134
0.125133
0.125133
0.125132
0.125132
0.125132
0.1
0.10001
0.100023
0.100039
0.100058
0.100079
0.100104
0.10013
0.10016
0.100192
0.100226
0.100264
0.100305
0.10035
0.100399
0.100451
0.100508
0.100569
0.100636
0.100707
0.100783
0.100864
0.100951
0.101043
0.10114
0.101242
0.10135
0.101463
0.101582
0.101705
0.101834
0.101969
0.102109
0.102254
0.102405
0.102561
0.102724
0.102892
0.103067
0.103249
0.103437
0.103632
0.103834
0.104044
0.104261
0.104487
0.10472
0.104961
0.105211
0.10547
0.105737
0.106012
0.106297
0.10659
0.106892
0.107203
0.107523
0.107852
0.10819
0.108536
0.108891
0.109256
0.109628
0.11001
0.1104
0.110799
0.111206
0.111621
0.112044
0.112476
0.112915
0.113362
0.113816
0.114278
0.114746
0.11522
0.115701
0.116188
0.11668
0.117177
0.117678
0.118184
0.118693
0.119205
0.119719
0.120235
0.120752
0.12127
0.121788
0.122305
0.122821
0.123335
0.123847
0.124356
0.124861
0.125363
0.125859
0.126351
0.126836
0.127316
0.127789
0.128254
0.128712
0.129163
0.129604
0.130037
0.130461
0.130876
0.131281
0.131676
0.132061
0.132436
0.1328
0.133154
0.133497
0.133829
0.13415
0.13446
0.134758
0.135046
0.135323
0.135588
0.135843
0.136086
0.136319
0.136541
0.136752
0.136952
0.137142
0.137321
0.137491
0.13765
0.1378
0.13794
0.13807
0.138191
0.138303
0.138406
0.138501
0.138587
0.138665
0.138735
0.138797
0.138851
0.138898
0.138938
0.138971
0.138998
0.139017
0.139031
0.139038
0.13904
0.139035
0.139025
0.13901
0.13899
0.138964
0.138934
0.138899
0.13886
0.138816
0.138768
0.138716
0.138661
0.138601
0.138538
0.138472
0.138403
0.13833
0.138255
0.138177
0.138096
0.138013
0.137927
0.13784
0.13775
0.137658
0.137564
0.137469
0.137372
0.137273
0.137173
0.137072
0.13697
0.136867
0.136762
0.136657
0.136551
0.136444
0.136336
0.136228
0.136119
0.13601
0.135901
0.135791
0.135681
0.135571
0.13546
0.13535
0.135239
0.135128
0.135018
0.134907
0.134797
0.134687
0.134577
0.134467
0.134358
0.134249
0.13414
0.134032
0.133925
0.133817
0.133711
0.133604
0.133499
0.133394
0.13329
0.133186
0.133083
0.13298
0.132879
0.132778
0.132678
0.132578
0.132479
0.132382
0.132284
0.132188
0.132092
0.131998
0.131903
0.13181
0.131718
0.131626
0.131535
0.131445
0.131356
0.131268
0.13118
0.131093
0.131007
0.130922
0.130838
0.130754
0.130672
0.13059
0.130509
0.130429
0.130349
0.130271
0.130193
0.130116
0.13004
0.129964
0.12989
0.129816
0.129743
0.129671
0.1296
0.129529
0.129459
0.12939
0.129321
0.129254
0.129187
0.129121
0.129055
0.128991
0.128926
0.128863
0.1288
0.128738
0.128677
0.128616
0.128556
0.128497
0.128438
0.12838
0.128323
0.128266
0.12821
0.128155
0.1281
0.128045
0.127992
0.127938
0.127886
0.127834
0.127783
0.127732
0.127682
0.127632
0.127583
0.127535
0.127487
0.127439
0.127392
0.127346
0.1273
0.127255
0.12721
0.127165
0.127121
0.127078
0.127035
0.126993
0.126951
0.12691
0.126869
0.126828
0.126788
0.126749
0.126709
0.126671
0.126633
0.126595
0.126558
0.126521
0.126484
0.126449
0.126413
0.126378
0.126344
0.126309
0.126276
0.126242
0.12621
0.126177
0.126145
0.126114
0.126083
0.126052
0.126022
0.125992
0.125963
0.125934
0.125905
0.125877
0.12585
0.125823
0.125796
0.12577
0.125744
0.125719
0.125694
0.125669
0.125645
0.125622
0.125599
0.125576
0.125554
0.125533
0.125512
0.125491
0.125471
0.125452
0.125433
0.125414
0.125396
0.125379
0.125362
0.125345
0.125329
0.125314
0.125299
0.125285
0.125272
0.125259
0.125246
0.125234
0.125223
0.125212
0.125202
0.125192
0.125183
0.125175
0.125167
0.125159
0.125152
0.125146
0.125141
0.125135
0.125131
0.125127
0.125123
0.12512
0.125117
0.125115
0.125113
0.125111
0.12511
0.125108
0.125108
0.125107
0.125106
0.125106
0.125105
0.125104
0.125104
0.1
0.10001
0.100023
0.100039
0.100057
0.100079
0.100103
0.10013
0.100159
0.10019
0.100225
0.100263
0.100304
0.100348
0.100396
0.100449
0.100505
0.100566
0.100632
0.100703
0.100779
0.10086
0.100946
0.101037
0.101134
0.101236
0.101344
0.101456
0.101574
0.101697
0.101826
0.10196
0.102099
0.102243
0.102394
0.10255
0.102712
0.10288
0.103054
0.103235
0.103423
0.103617
0.103819
0.104028
0.104245
0.10447
0.104703
0.104944
0.105194
0.105452
0.105719
0.105994
0.106278
0.106572
0.106874
0.107185
0.107505
0.107834
0.108171
0.108518
0.108874
0.109238
0.109612
0.109994
0.110385
0.110784
0.111192
0.111608
0.112033
0.112466
0.112906
0.113355
0.11381
0.114273
0.114743
0.11522
0.115703
0.116191
0.116686
0.117185
0.117688
0.118196
0.118707
0.119222
0.119738
0.120257
0.120776
0.121296
0.121817
0.122336
0.122855
0.123372
0.123886
0.124397
0.124905
0.125408
0.125907
0.1264
0.126888
0.127369
0.127844
0.128311
0.128771
0.129222
0.129666
0.1301
0.130525
0.130941
0.131346
0.131742
0.132128
0.132503
0.132868
0.133222
0.133565
0.133897
0.134218
0.134528
0.134826
0.135114
0.13539
0.135655
0.135909
0.136152
0.136384
0.136605
0.136816
0.137015
0.137204
0.137383
0.137552
0.13771
0.137859
0.137998
0.138127
0.138248
0.138359
0.138461
0.138555
0.13864
0.138717
0.138786
0.138847
0.1389
0.138947
0.138986
0.139018
0.139043
0.139062
0.139075
0.139081
0.139082
0.139076
0.139066
0.13905
0.139028
0.139002
0.138971
0.138935
0.138895
0.138851
0.138802
0.13875
0.138693
0.138633
0.13857
0.138503
0.138433
0.13836
0.138284
0.138205
0.138124
0.13804
0.137954
0.137865
0.137775
0.137683
0.137588
0.137492
0.137395
0.137296
0.137196
0.137094
0.136991
0.136887
0.136783
0.136677
0.13657
0.136463
0.136355
0.136247
0.136138
0.136028
0.135918
0.135808
0.135698
0.135587
0.135476
0.135366
0.135255
0.135144
0.135033
0.134922
0.134812
0.134701
0.134591
0.134481
0.134372
0.134262
0.134154
0.134045
0.133937
0.13383
0.133723
0.133617
0.133511
0.133406
0.133301
0.133197
0.133094
0.132991
0.13289
0.132789
0.132688
0.132589
0.13249
0.132392
0.132294
0.132198
0.132102
0.132007
0.131913
0.131819
0.131727
0.131635
0.131544
0.131454
0.131364
0.131276
0.131188
0.131101
0.131015
0.13093
0.130845
0.130762
0.130679
0.130597
0.130516
0.130435
0.130356
0.130277
0.130199
0.130122
0.130046
0.12997
0.129895
0.129821
0.129748
0.129676
0.129604
0.129534
0.129463
0.129394
0.129326
0.129258
0.129191
0.129124
0.129059
0.128994
0.128929
0.128866
0.128803
0.128741
0.128679
0.128618
0.128558
0.128499
0.12844
0.128381
0.128324
0.128267
0.128211
0.128155
0.1281
0.128045
0.127991
0.127938
0.127885
0.127833
0.127781
0.12773
0.12768
0.12763
0.127581
0.127532
0.127484
0.127436
0.127389
0.127342
0.127296
0.12725
0.127205
0.127161
0.127116
0.127073
0.12703
0.126987
0.126945
0.126903
0.126862
0.126821
0.126781
0.126741
0.126702
0.126663
0.126624
0.126586
0.126549
0.126511
0.126475
0.126438
0.126403
0.126367
0.126332
0.126298
0.126264
0.12623
0.126197
0.126164
0.126132
0.1261
0.126069
0.126038
0.126007
0.125977
0.125948
0.125918
0.125889
0.125861
0.125833
0.125806
0.125779
0.125752
0.125726
0.1257
0.125675
0.12565
0.125626
0.125602
0.125579
0.125556
0.125533
0.125511
0.12549
0.125469
0.125449
0.125429
0.125409
0.12539
0.125372
0.125354
0.125337
0.12532
0.125304
0.125288
0.125273
0.125258
0.125244
0.125231
0.125218
0.125206
0.125194
0.125183
0.125172
0.125162
0.125153
0.125144
0.125136
0.125128
0.125121
0.125114
0.125108
0.125103
0.125098
0.125093
0.125089
0.125086
0.125083
0.12508
0.125078
0.125076
0.125075
0.125073
0.125072
0.125071
0.125071
0.12507
0.125069
0.125069
0.125069
0.1
0.10001
0.100022
0.100038
0.100057
0.100078
0.100102
0.100129
0.100158
0.100189
0.100224
0.100261
0.100302
0.100346
0.100394
0.100446
0.100502
0.100563
0.100628
0.100699
0.100774
0.100854
0.10094
0.101031
0.101127
0.101229
0.101335
0.101447
0.101565
0.101687
0.101815
0.101948
0.102087
0.102231
0.10238
0.102536
0.102697
0.102864
0.103038
0.103218
0.103405
0.103599
0.103801
0.104009
0.104226
0.10445
0.104683
0.104923
0.105172
0.10543
0.105697
0.105972
0.106256
0.106549
0.106851
0.107162
0.107482
0.107811
0.108149
0.108496
0.108852
0.109217
0.109591
0.109974
0.110366
0.110766
0.111176
0.111593
0.112019
0.112453
0.112895
0.113346
0.113803
0.114268
0.11474
0.115219
0.115704
0.116196
0.116692
0.117194
0.1177
0.118211
0.118725
0.119242
0.119762
0.120283
0.120806
0.121329
0.121852
0.122375
0.122896
0.123416
0.123933
0.124447
0.124958
0.125464
0.125965
0.126461
0.126951
0.127435
0.127912
0.128381
0.128842
0.129296
0.12974
0.130176
0.130603
0.13102
0.131427
0.131823
0.13221
0.132586
0.132951
0.133305
0.133648
0.13398
0.134301
0.134611
0.13491
0.135197
0.135473
0.135737
0.135991
0.136233
0.136464
0.136684
0.136894
0.137093
0.137281
0.137459
0.137626
0.137784
0.137931
0.138069
0.138198
0.138317
0.138427
0.138528
0.13862
0.138705
0.13878
0.138848
0.138908
0.138961
0.139006
0.139044
0.139075
0.139099
0.139117
0.139128
0.139134
0.139133
0.139127
0.139115
0.139098
0.139076
0.139048
0.139016
0.13898
0.138939
0.138893
0.138844
0.13879
0.138733
0.138672
0.138608
0.13854
0.138469
0.138395
0.138319
0.138239
0.138157
0.138073
0.137986
0.137897
0.137806
0.137713
0.137618
0.137521
0.137423
0.137324
0.137223
0.137121
0.137017
0.136913
0.136808
0.136701
0.136594
0.136486
0.136378
0.136269
0.13616
0.13605
0.13594
0.135829
0.135718
0.135607
0.135496
0.135385
0.135274
0.135162
0.135051
0.13494
0.134829
0.134718
0.134608
0.134498
0.134388
0.134279
0.134169
0.134061
0.133953
0.133845
0.133738
0.133631
0.133525
0.13342
0.133315
0.133211
0.133107
0.133005
0.132903
0.132801
0.132701
0.132601
0.132502
0.132403
0.132306
0.132209
0.132113
0.132018
0.131924
0.13183
0.131737
0.131645
0.131554
0.131464
0.131374
0.131285
0.131197
0.13111
0.131024
0.130939
0.130854
0.13077
0.130687
0.130605
0.130523
0.130443
0.130363
0.130284
0.130206
0.130129
0.130052
0.129976
0.129901
0.129827
0.129754
0.129681
0.12961
0.129539
0.129468
0.129399
0.12933
0.129262
0.129195
0.129128
0.129062
0.128997
0.128932
0.128869
0.128805
0.128743
0.128681
0.12862
0.12856
0.1285
0.128441
0.128382
0.128324
0.128267
0.12821
0.128154
0.128099
0.128044
0.12799
0.127936
0.127883
0.127831
0.127779
0.127727
0.127677
0.127626
0.127577
0.127528
0.127479
0.127431
0.127384
0.127337
0.12729
0.127244
0.127199
0.127154
0.127109
0.127065
0.127022
0.126979
0.126936
0.126894
0.126853
0.126811
0.126771
0.126731
0.126691
0.126651
0.126613
0.126574
0.126536
0.126499
0.126462
0.126425
0.126389
0.126353
0.126318
0.126283
0.126248
0.126214
0.126181
0.126148
0.126115
0.126083
0.126051
0.12602
0.125989
0.125958
0.125928
0.125898
0.125869
0.12584
0.125812
0.125784
0.125756
0.125729
0.125703
0.125676
0.125651
0.125626
0.125601
0.125576
0.125553
0.125529
0.125506
0.125484
0.125462
0.125441
0.12542
0.125399
0.125379
0.12536
0.125341
0.125323
0.125305
0.125288
0.125271
0.125255
0.125239
0.125224
0.12521
0.125196
0.125182
0.12517
0.125157
0.125146
0.125135
0.125124
0.125114
0.125105
0.125096
0.125088
0.125081
0.125074
0.125067
0.125061
0.125056
0.125051
0.125047
0.125043
0.12504
0.125037
0.125034
0.125032
0.12503
0.125029
0.125028
0.125027
0.125026
0.125025
0.125024
0.125024
0.125024
0.1
0.10001
0.100022
0.100038
0.100057
0.100078
0.100101
0.100128
0.100156
0.100188
0.100222
0.100259
0.100299
0.100343
0.100391
0.100442
0.100498
0.100559
0.100624
0.100693
0.100768
0.100848
0.100933
0.101023
0.101119
0.10122
0.101326
0.101437
0.101554
0.101675
0.101802
0.101935
0.102072
0.102216
0.102365
0.102519
0.10268
0.102846
0.103019
0.103199
0.103385
0.103578
0.103779
0.103987
0.104203
0.104426
0.104658
0.104898
0.105147
0.105404
0.10567
0.105945
0.106229
0.106522
0.106824
0.107135
0.107455
0.107784
0.108122
0.10847
0.108827
0.109192
0.109567
0.109951
0.110344
0.110745
0.111156
0.111575
0.112002
0.112438
0.112882
0.113335
0.113794
0.114262
0.114737
0.115218
0.115706
0.1162
0.1167
0.117205
0.117714
0.118228
0.118746
0.119266
0.119789
0.120314
0.120841
0.121367
0.121894
0.122421
0.122946
0.123469
0.123989
0.124507
0.125021
0.12553
0.126034
0.126533
0.127026
0.127512
0.127992
0.128464
0.128927
0.129383
0.129829
0.130267
0.130695
0.131113
0.131521
0.131919
0.132307
0.132683
0.133049
0.133404
0.133747
0.134079
0.1344
0.13471
0.135008
0.135295
0.13557
0.135834
0.136087
0.136328
0.136559
0.136778
0.136987
0.137184
0.137371
0.137548
0.137714
0.137871
0.138017
0.138154
0.138281
0.138398
0.138507
0.138607
0.138698
0.138781
0.138855
0.138922
0.13898
0.139031
0.139075
0.139112
0.139141
0.139164
0.139181
0.139191
0.139195
0.139193
0.139186
0.139173
0.139155
0.139131
0.139103
0.13907
0.139032
0.13899