# vtk DataFile Version 3.0
LBM Fluid Grid
ASCII
DATASET STRUCTURED_POINTS
DIMENSIONS 400 150 1
ORIGIN 0 0 0
SPACING 1 1 1
POINT_DATA 60000
SCALARS VelocityMagnitude double 1
LOOKUP_TABLE default
0.1
0.0995998
0.099357
0.0992341
0.0991743
0.0991279
0.0990594
0.0989486
0.098789
0.0985841
0.0983444
0.0980845
0.097821
0.0975712
0.0973512
0.097175
0.0970531
0.0969921
0.0969946
0.0970602
0.0971862
0.0973686
0.0976029
0.0978844
0.0982082
0.0985695
0.098963
0.0993831
0.0998235
0.100278
0.100739
0.1012
0.101655
0.102099
0.102527
0.102934
0.10332
0.103684
0.104025
0.104347
0.104651
0.104942
0.105223
0.105498
0.105771
0.106045
0.106322
0.106604
0.106892
0.107185
0.107481
0.10778
0.108079
0.108375
0.108665
0.108946
0.109217
0.109475
0.109719
0.109948
0.110163
0.110364
0.110552
0.110729
0.110898
0.111062
0.111223
0.111385
0.111551
0.111725
0.111908
0.112104
0.112315
0.112543
0.112789
0.113054
0.113338
0.113642
0.113965
0.114307
0.114666
0.115042
0.115433
0.115838
0.116255
0.116682
0.117118
0.117561
0.11801
0.118463
0.118918
0.119375
0.119831
0.120285
0.120737
0.121184
0.121627
0.122064
0.122494
0.122917
0.123332
0.123738
0.124135
0.124522
0.124898
0.125264
0.125619
0.125963
0.126295
0.126615
0.126924
0.127221
0.127505
0.127778
0.128038
0.128286
0.128522
0.128745
0.128956
0.129154
0.12934
0.129513
0.129673
0.12982
0.129954
0.130074
0.13018
0.130272
0.130349
0.130411
0.130457
0.130486
0.130499
0.130493
0.130469
0.130426
0.130361
0.130276
0.130169
0.130038
0.129883
0.129704
0.1295
0.12927
0.129014
0.128732
0.128424
0.128091
0.127733
0.127352
0.126948
0.126525
0.126082
0.125624
0.125152
0.124669
0.124178
0.123682
0.123183
0.122685
0.122191
0.121702
0.121222
0.120751
0.120293
0.119849
0.119419
0.119005
0.118608
0.118228
0.117866
0.11752
0.117192
0.116882
0.116587
0.11631
0.116048
0.115801
0.11557
0.115352
0.115149
0.114959
0.114781
0.114616
0.114463
0.114321
0.11419
0.11407
0.11396
0.11386
0.113768
0.113685
0.11361
0.113542
0.113481
0.113425
0.113373
0.113324
0.113277
0.11323
0.113181
0.113128
0.113068
0.113
0.11292
0.112827
0.112716
0.112586
0.112433
0.112255
0.112049
0.111814
0.111548
0.11125
0.11092
0.110557
0.110164
0.109742
0.109294
0.108824
0.108335
0.107832
0.107321
0.106806
0.106294
0.105789
0.105296
0.10482
0.104365
0.103933
0.103528
0.103151
0.102802
0.102483
0.102192
0.101929
0.101692
0.101479
0.101287
0.101115
0.100958
0.100815
0.100682
0.100557
0.100438
0.100321
0.100204
0.100087
0.0999658
0.0998404
0.0997094
0.0995721
0.099428
0.0992769
0.099119
0.0989547
0.0987846
0.0986097
0.0984313
0.0982506
0.0980693
0.0978889
0.0977113
0.0975385
0.0973721
0.0972142
0.0970666
0.0969309
0.0968087
0.0967014
0.0966102
0.0965357
0.0964788
0.0964397
0.0964183
0.0964145
0.0964277
0.096457
0.0965014
0.0965598
0.0966308
0.096713
0.0968049
0.0969051
0.0970121
0.0971246
0.0972413
0.0973612
0.0974832
0.0976066
0.0977308
0.0978551
0.0979793
0.0981031
0.0982264
0.0983491
0.0984713
0.0985932
0.0987147
0.0988361
0.0989575
0.0990791
0.099201
0.0993233
0.0994463
0.09957
0.0996944
0.0998198
0.0999462
0.100074
0.100202
0.100332
0.100464
0.100597
0.100731
0.100867
0.101006
0.101146
0.101289
0.101434
0.101581
0.101732
0.101885
0.102041
0.102201
0.102364
0.10253
0.102699
0.102871
0.103047
0.103226
0.103407
0.103592
0.10378
0.10397
0.104163
0.104359
0.104558
0.104759
0.104963
0.105171
0.105381
0.105595
0.105814
0.106036
0.106263
0.106495
0.106731
0.106974
0.107221
0.107474
0.107732
0.107995
0.108263
0.108534
0.108808
0.109084
0.10936
0.109635
0.109908
0.110176
0.110439
0.110694
0.11094
0.111176
0.111402
0.111616
0.111818
0.112009
0.11219
0.112362
0.112526
0.112683
0.112833
0.112976
0.11311
0.113234
0.113345
0.113438
0.113511
0.113562
0.113589
0.113593
0.113577
0.113545
0.113503
0.113457
0.113412
0.113373
0.113346
0.113333
0.113335
0.113356
0.113394
0.11345
0.113522
0.113611
0.113714
0.113832
0.113832
0.1
0.0996008
0.0993587
0.0992363
0.0991767
0.0991304
0.0990621
0.0989516
0.0987924
0.0985882
0.0983493
0.0980902
0.0978275
0.0975785
0.0973593
0.0971837
0.0970623
0.0970015
0.0970042
0.0970697
0.0971956
0.0973778
0.0976117
0.0978928
0.0982162
0.098577
0.09897
0.0993895
0.0998293
0.100283
0.100743
0.101204
0.101659
0.102102
0.102529
0.102936
0.103321
0.103684
0.104025
0.104346
0.10465
0.10494
0.105221
0.105495
0.105767
0.106041
0.106317
0.106599
0.106886
0.107178
0.107474
0.107772
0.10807
0.108365
0.108655
0.108936
0.109206
0.109464
0.109708
0.109937
0.110152
0.110352
0.110541
0.110718
0.110888
0.111052
0.111214
0.111377
0.111544
0.111718
0.111902
0.112099
0.112311
0.11254
0.112786
0.113052
0.113337
0.113642
0.113966
0.114308
0.114668
0.115045
0.115437
0.115842
0.116259
0.116687
0.117124
0.117567
0.118016
0.118469
0.118925
0.119382
0.119838
0.120292
0.120744
0.121192
0.121635
0.122073
0.122503
0.122926
0.123341
0.123747
0.124144
0.124531
0.124908
0.125274
0.125629
0.125973
0.126306
0.126626
0.126935
0.127232
0.127517
0.127789
0.12805
0.128298
0.128533
0.128757
0.128968
0.129166
0.129352
0.129524
0.129684
0.129831
0.129965
0.130085
0.130191
0.130282
0.130359
0.130421
0.130467
0.130496
0.130508
0.130503
0.130478
0.130434
0.13037
0.130284
0.130176
0.130046
0.129891
0.129711
0.129507
0.129277
0.12902
0.128738
0.12843
0.128097
0.127739
0.127357
0.126954
0.12653
0.126087
0.125629
0.125157
0.124674
0.124183
0.123686
0.123188
0.12269
0.122195
0.121707
0.121226
0.120756
0.120297
0.119853
0.119423
0.119009
0.118612
0.118231
0.117868
0.117523
0.117195
0.116883
0.116589
0.116311
0.116049
0.115802
0.11557
0.115352
0.115149
0.114958
0.11478
0.114615
0.114461
0.114319
0.114188
0.114068
0.113957
0.113856
0.113765
0.113681
0.113606
0.113538
0.113476
0.11342
0.113368
0.113319
0.113271
0.113223
0.113174
0.11312
0.11306
0.112992
0.112912
0.112818
0.112706
0.112576
0.112423
0.112244
0.112038
0.111803
0.111537
0.111238
0.110908
0.110545
0.110152
0.10973
0.109282
0.108812
0.108323
0.107821
0.10731
0.106796
0.106284
0.105779
0.105287
0.104811
0.104357
0.103926
0.103521
0.103144
0.102797
0.102478
0.102188
0.101925
0.101689
0.101476
0.101285
0.101113
0.100957
0.100814
0.100682
0.100557
0.100438
0.100321
0.100205
0.100087
0.0999667
0.0998415
0.0997107
0.0995735
0.0994295
0.0992785
0.0991206
0.0989564
0.0987864
0.0986117
0.0984334
0.0982528
0.0980716
0.0978914
0.097714
0.0975413
0.0973752
0.0972175
0.0970701
0.0969346
0.0968127
0.0967055
0.0966144
0.0965402
0.0964834
0.0964444
0.0964231
0.0964194
0.0964325
0.0964619
0.0965063
0.0965647
0.0966356
0.0967178
0.0968096
0.0969097
0.0970166
0.097129
0.0972456
0.0973654
0.0974873
0.0976106
0.0977346
0.0978588
0.0979829
0.0981066
0.0982298
0.0983525
0.0984747
0.0985964
0.0987178
0.0988391
0.0989604
0.0990819
0.0992037
0.0993259
0.0994488
0.0995723
0.0996967
0.0998219
0.0999482
0.100076
0.100204
0.100334
0.100465
0.100598
0.100732
0.100868
0.101007
0.101147
0.101289
0.101434
0.101582
0.101732
0.101885
0.102042
0.102201
0.102364
0.10253
0.102699
0.102871
0.103047
0.103226
0.103407
0.103592
0.10378
0.10397
0.104163
0.104359
0.104557
0.104758
0.104962
0.105169
0.10538
0.105594
0.105812
0.106034
0.106261
0.106493
0.106729
0.106971
0.107219
0.107471
0.107729
0.107992
0.108259
0.10853
0.108804
0.109079
0.109355
0.10963
0.109902
0.11017
0.110433
0.110687
0.110933
0.111169
0.111394
0.111608
0.11181
0.112001
0.112182
0.112355
0.112519
0.112676
0.112826
0.11297
0.113105
0.11323
0.113341
0.113436
0.11351
0.113562
0.11359
0.113595
0.11358
0.113549
0.113507
0.113461
0.113416
0.113378
0.11335
0.113337
0.11334
0.11336
0.113397
0.113453
0.113525
0.113613
0.113716
0.113833
0.113833
0.1
0.0996037
0.099364
0.099243
0.0991841
0.0991381
0.0990702
0.0989605
0.0988027
0.0986004
0.0983638
0.0981072
0.0978471
0.0976005
0.0973835
0.0972098
0.0970897
0.0970299
0.0970329
0.0970984
0.0972238
0.0974052
0.0976381
0.097918
0.09824
0.0985993
0.0989908
0.0994086
0.0998466
0.100298
0.100757
0.101216
0.101669
0.10211
0.102535
0.10294
0.103323
0.103685
0.104024
0.104343
0.104646
0.104934
0.105213
0.105486
0.105756
0.106027
0.106302
0.106582
0.106867
0.107157
0.107451
0.107748
0.108044
0.108337
0.108625
0.108905
0.109174
0.109431
0.109674
0.109903
0.110118
0.110319
0.110507
0.110686
0.110857
0.111022
0.111186
0.111351
0.11152
0.111697
0.111883
0.112083
0.112298
0.112529
0.112779
0.113047
0.113335
0.113642
0.113968
0.114313
0.114675
0.115053
0.115447
0.115854
0.116273
0.116702
0.117139
0.117584
0.118035
0.118489
0.118945
0.119402
0.11986
0.120315
0.120768
0.121216
0.12166
0.122098
0.122529
0.122953
0.123369
0.123775
0.124173
0.124561
0.124938
0.125305
0.12566
0.126005
0.126338
0.126659
0.126968
0.127265
0.12755
0.127823
0.128084
0.128332
0.128568
0.128791
0.129002
0.129201
0.129386
0.129559
0.129719
0.129865
0.129999
0.130118
0.130224
0.130315
0.130391
0.130452
0.130497
0.130526
0.130537
0.130531
0.130506
0.130461
0.130396
0.130309
0.1302
0.130068
0.129913
0.129732
0.129527
0.129296
0.129039
0.128756
0.128448
0.128114
0.127755
0.127373
0.126969
0.126545
0.126102
0.125644
0.125171
0.124688
0.124197
0.123701
0.123202
0.122704
0.122209
0.12172
0.121239
0.120768
0.12031
0.119864
0.119434
0.119019
0.118621
0.11824
0.117877
0.11753
0.117201
0.116889
0.116594
0.116315
0.116052
0.115804
0.115571
0.115352
0.115148
0.114956
0.114778
0.114611
0.114457
0.114314
0.114182
0.11406
0.113949
0.113847
0.113754
0.11367
0.113594
0.113525
0.113462
0.113404
0.113351
0.113301
0.113252
0.113204
0.113153
0.113098
0.113037
0.112967
0.112886
0.11279
0.112678
0.112546
0.112392
0.112212
0.112005
0.111769
0.111502
0.111203
0.110872
0.110509
0.110116
0.109694
0.109246
0.108776
0.108288
0.107787
0.107277
0.106764
0.106253
0.10575
0.105259
0.104785
0.104332
0.103903
0.1035
0.103125
0.10278
0.102463
0.102175
0.101914
0.101679
0.101468
0.101278
0.101108
0.100953
0.100811
0.10068
0.100556
0.100438
0.100322
0.100207
0.10009
0.0999695
0.0998447
0.0997143
0.0995775
0.0994338
0.0992831
0.0991255
0.0989616
0.0987919
0.0986176
0.0984396
0.0982595
0.0980787
0.097899
0.0977222
0.09755
0.0973845
0.0972274
0.0970806
0.0969458
0.0968244
0.0967178
0.0966272
0.0965535
0.0964971
0.0964584
0.0964374
0.0964338
0.0964471
0.0964765
0.0965209
0.0965792
0.09665
0.0967319
0.0968235
0.0969233
0.0970299
0.097142
0.0972583
0.0973777
0.0974994
0.0976224
0.0977461
0.0978701
0.0979939
0.0981173
0.0982403
0.0983627
0.0984846
0.098606
0.0987272
0.0988482
0.0989692
0.0990904
0.0992118
0.0993337
0.0994562
0.0995794
0.0997034
0.0998283
0.0999541
0.100081
0.100209
0.100339
0.10047
0.100602
0.100736
0.100872
0.10101
0.101149
0.101292
0.101436
0.101584
0.101734
0.101887
0.102043
0.102202
0.102365
0.10253
0.102699
0.102871
0.103047
0.103225
0.103407
0.103591
0.103779
0.103969
0.104161
0.104357
0.104555
0.104756
0.10496
0.105166
0.105377
0.10559
0.105808
0.10603
0.106256
0.106487
0.106723
0.106965
0.107211
0.107463
0.107721
0.107983
0.108249
0.108519
0.108792
0.109066
0.109341
0.109615
0.109886
0.110153
0.110414
0.110668
0.110913
0.111148
0.111372
0.111585
0.111786
0.111978
0.112159
0.112331
0.112496
0.112654
0.112807
0.112952
0.11309
0.113217
0.113332
0.113429
0.113507
0.113562
0.113593
0.1136
0.113588
0.113559
0.113519
0.113473
0.113429
0.113391
0.113364
0.11335
0.113352
0.113371
0.113408
0.113462
0.113533
0.11362
0.113722
0.113837
0.113837
0.1
0.0996085
0.0993727
0.0992541
0.0991964
0.099151
0.0990837
0.0989754
0.0988199
0.0986208
0.098388
0.0981355
0.0978796
0.0976371
0.0974237
0.097253
0.0971353
0.0970769
0.0970806
0.097146
0.0972706
0.0974507
0.0976819
0.0979598
0.0982796
0.0986364
0.0990252
0.0994403
0.0998754
0.100324
0.10078
0.101235
0.101685
0.102123
0.102544
0.102947
0.103327
0.103686
0.104022
0.104339
0.104638
0.104924
0.1052
0.10547
0.105737
0.106005
0.106277
0.106553
0.106835
0.107122
0.107413
0.107707
0.108
0.108291
0.108576
0.108854
0.109121
0.109376
0.109618
0.109846
0.110061
0.110262
0.110452
0.110632
0.110805
0.110973
0.11114
0.111308
0.111481
0.111662
0.111853
0.112057
0.112276
0.112512
0.112766
0.113039
0.113331
0.113642
0.113972
0.11432
0.114686
0.115067
0.115464
0.115873
0.116295
0.116726
0.117166
0.117613
0.118065
0.11852
0.118978
0.119437
0.119896
0.120352
0.120806
0.121256
0.121701
0.12214
0.122573
0.122998
0.123414
0.123822
0.124221
0.124609
0.124988
0.125355
0.125712
0.126057
0.126391
0.126713
0.127023
0.127321
0.127606
0.12788
0.128141
0.12839
0.128626
0.128849
0.12906
0.129259
0.129444
0.129617
0.129776
0.129922
0.130055
0.130174
0.130279
0.130369
0.130444
0.130504
0.130548
0.130576
0.130586
0.130578
0.130551
0.130505
0.130438
0.13035
0.13024
0.130106
0.129949
0.129768
0.129561
0.129328
0.12907
0.128786
0.128476
0.128142
0.127782
0.1274
0.126995
0.12657
0.126127
0.125668
0.125196
0.124712
0.124221
0.123724
0.123225
0.122727
0.122232
0.121742
0.121261
0.120789
0.12033
0.119884
0.119452
0.119037
0.118638
0.118255
0.11789
0.117543
0.117212
0.116898
0.116602
0.116321
0.116056
0.115807
0.115572
0.115352
0.115146
0.114953
0.114773
0.114605
0.114449
0.114304
0.11417
0.114047
0.113934
0.113831
0.113737
0.113651
0.113573
0.113502
0.113438
0.113379
0.113324
0.113272
0.113221
0.113171
0.113118
0.113061
0.112998
0.112926
0.112843
0.112745
0.112631
0.112497
0.112341
0.112159
0.111951
0.111713
0.111445
0.111145
0.110813
0.110449
0.110056
0.109634
0.109187
0.108717
0.10823
0.10773
0.107222
0.106711
0.106202
0.105702
0.105214
0.104742
0.104292
0.103866
0.103466
0.103094
0.102751
0.102438
0.102152
0.101895
0.101663
0.101454
0.101267
0.101099
0.100946
0.100806
0.100677
0.100555
0.100438
0.100324
0.100209
0.100093
0.0999741
0.0998501
0.0997203
0.0995841
0.0994409
0.0992908
0.0991337
0.0989703
0.0988012
0.0986273
0.09845
0.0982706
0.0980906
0.0979117
0.0977357
0.0975645
0.0974
0.0972439
0.0970981
0.0969642
0.0968438
0.0967382
0.0966485
0.0965755
0.0965198
0.0964817
0.0964611
0.0964578
0.0964713
0.0965007
0.0965451
0.0966031
0.0966737
0.0967553
0.0968465
0.0969458
0.0970519
0.0971635
0.0972793
0.0973983
0.0975194
0.0976419
0.0977652
0.0978887
0.0980121
0.0981351
0.0982576
0.0983796
0.098501
0.0986221
0.0987428
0.0988633
0.0989838
0.0991045
0.0992254
0.0993467
0.0994686
0.0995912
0.0997146
0.0998388
0.099964
0.10009
0.100218
0.100347
0.100477
0.100609
0.100742
0.100877
0.101015
0.101154
0.101296
0.10144
0.101587
0.101736
0.101889
0.102045
0.102204
0.102366
0.102531
0.1027
0.102872
0.103047
0.103225
0.103406
0.10359
0.103777
0.103967
0.104159
0.104354
0.104551
0.104752
0.104955
0.105161
0.105371
0.105584
0.105801
0.106022
0.106247
0.106478
0.106713
0.106953
0.107199
0.10745
0.107706
0.107967
0.108232
0.108501
0.108772
0.109045
0.109318
0.10959
0.109859
0.110124
0.110383
0.110635
0.110878
0.111112
0.111334
0.111546
0.111747
0.111938
0.112119
0.112293
0.112459
0.112619
0.112774
0.112923
0.113064
0.113196
0.113315
0.113418
0.113501
0.113561
0.113597
0.113609
0.1136
0.113575
0.113537
0.113494
0.113451
0.113414
0.113386
0.113372
0.113373
0.11339
0.113425
0.113477
0.113546
0.113631
0.113731
0.113844
0.113844
0.1
0.0996154
0.099385
0.0992698
0.0992137
0.099169
0.0991026
0.0989963
0.098844
0.0986492
0.0984216
0.0981749
0.0979249
0.097688
0.0974797
0.0973132
0.0971986
0.0971422
0.0971468
0.097212
0.0973356
0.0975139
0.0977428
0.0980179
0.0983345
0.098688
0.0990732
0.0994843
0.0999154
0.10036
0.100811
0.101262
0.101707
0.102141
0.102558
0.102956
0.103333
0.103687
0.10402
0.104332
0.104628
0.10491
0.105181
0.105447
0.10571
0.105975
0.106242
0.106514
0.106791
0.107074
0.107361
0.10765
0.107939
0.108226
0.108508
0.108782
0.109047
0.1093
0.109541
0.109768
0.109982
0.110184
0.110376
0.110558
0.110733
0.110905
0.111076
0.111249
0.111427
0.111613
0.11181
0.112021
0.112246
0.112488
0.112748
0.113027
0.113325
0.113642
0.113977
0.114331
0.114701
0.115087
0.115487
0.115901
0.116325
0.11676
0.117203
0.117652
0.118107
0.118565
0.119025
0.119486
0.119946
0.120405
0.12086
0.121312
0.121759
0.122199
0.122633
0.12306
0.123478
0.123887
0.124287
0.124677
0.125057
0.125426
0.125784
0.12613
0.126465
0.126788
0.127099
0.127398
0.127685
0.127959
0.128221
0.12847
0.128706
0.12893
0.129141
0.129339
0.129525
0.129697
0.129856
0.130002
0.130133
0.130251
0.130355
0.130444
0.130518
0.130577
0.130619
0.130645
0.130653
0.130643
0.130615
0.130566
0.130498
0.130407
0.130295
0.130159
0.13
0.129816
0.129608
0.129373
0.129113
0.128828
0.128517
0.12818
0.12782
0.127436
0.127031
0.126605
0.126162
0.125702
0.125229
0.124746
0.124254
0.123757
0.123258
0.122759
0.122263
0.121773
0.12129
0.120818
0.120357
0.11991
0.119477
0.11906
0.11866
0.118276
0.117909
0.117559
0.117227
0.116911
0.116612
0.116329
0.116062
0.115811
0.115574
0.115351
0.115143
0.114948
0.114765
0.114595
0.114437
0.11429
0.114154
0.114029
0.113914
0.113808
0.113712
0.113624
0.113543
0.11347
0.113404
0.113342
0.113285
0.11323
0.113177
0.113124
0.113068
0.113009
0.112943
0.112868
0.112782
0.112682
0.112565
0.112428
0.112269
0.112085
0.111875
0.111635
0.111365
0.111063
0.11073
0.110366
0.109972
0.109551
0.109104
0.108636
0.10815
0.107652
0.107146
0.106638
0.106132
0.105635
0.10515
0.104683
0.104237
0.103815
0.103419
0.103051
0.102713
0.102403
0.102122
0.101868
0.10164
0.101435
0.101251
0.101086
0.100936
0.1008
0.100673
0.100553
0.100438
0.100326
0.100213
0.100098
0.0999804
0.0998575
0.0997287
0.0995933
0.0994509
0.0993015
0.0991452
0.0989825
0.0988141
0.0986411
0.0984647
0.0982862
0.0981072
0.0979295
0.0977547
0.0975848
0.0974216
0.0972669
0.0971225
0.09699
0.096871
0.0967666
0.096678
0.0966061
0.0965513
0.0965139
0.096494
0.0964911
0.0965048
0.0965343
0.0965785
0.0966364
0.0967065
0.0967877
0.0968783
0.096977
0.0970825
0.0971934
0.0973085
0.0974267
0.0975472
0.097669
0.0977916
0.0979145
0.0980373
0.0981597
0.0982817
0.0984031
0.0985239
0.0986444
0.0987645
0.0988843
0.0990042
0.0991241
0.0992443
0.0993648
0.0994859
0.0996076
0.0997301
0.0998535
0.0999779
0.100103
0.10023
0.100358
0.100487
0.100618
0.100751
0.100885
0.101022
0.10116
0.101301
0.101445
0.101591
0.10174
0.101892
0.102048
0.102206
0.102368
0.102532
0.102701
0.102872
0.103047
0.103224
0.103405
0.103588
0.103775
0.103964
0.104155
0.10435
0.104546
0.104746
0.104949
0.105154
0.105363
0.105575
0.105791
0.106011
0.106235
0.106464
0.106698
0.106938
0.107182
0.107432
0.107686
0.107945
0.108208
0.108475
0.108744
0.109015
0.109285
0.109555
0.109821
0.110084
0.11034
0.11059
0.11083
0.111061
0.111282
0.111493
0.111693
0.111883
0.112065
0.112239
0.112407
0.11257
0.112729
0.112882
0.113029
0.113167
0.113293
0.113403
0.113492
0.113559
0.113602
0.113621
0.113618
0.113597
0.113563
0.113523
0.113482
0.113445
0.113418
0.113402
0.113402
0.113417
0.113449
0.113499
0.113565
0.113646
0.113743
0.113854
0.113854
0.1
0.0996244
0.0994009
0.09929
0.0992359
0.0991922
0.099127
0.0990231
0.0988749
0.0986857
0.0984648
0.0982253
0.0979827
0.0977529
0.097551
0.0973899
0.0972793
0.0972255
0.0972312
0.0972962
0.0974184
0.0975945
0.0978204
0.0980919
0.0984046
0.0987537
0.0991342
0.0995405
0.0999663
0.100405
0.100851
0.101296
0.101736
0.102164
0.102576
0.102968
0.103339
0.103688
0.104016
0.104324
0.104614
0.104891
0.105158
0.105418
0.105676
0.105935
0.106196
0.106463
0.106734
0.107011
0.107293
0.107577
0.107861
0.108143
0.10842
0.108691
0.108952
0.109203
0.109442
0.109668
0.109882
0.110085
0.110278
0.110463
0.110642
0.110819
0.110995
0.111174
0.111359
0.111552
0.111757
0.111975
0.112208
0.112458
0.112726
0.113012
0.113318
0.113642
0.113984
0.114344
0.11472
0.115112
0.115517
0.115936
0.116365
0.116803
0.11725
0.117703
0.118161
0.118622
0.119085
0.119548
0.120011
0.120472
0.12093
0.121384
0.121832
0.122275
0.122711
0.12314
0.12356
0.123971
0.124373
0.124765
0.125146
0.125517
0.125876
0.126224
0.126561
0.126885
0.127198
0.127498
0.127785
0.12806
0.128323
0.128573
0.12881
0.129034
0.129245
0.129443
0.129628
0.1298
0.129958
0.130103
0.130234
0.130351
0.130453
0.130541
0.130613
0.13067
0.13071
0.130734
0.13074
0.130727
0.130696
0.130645
0.130574
0.130481
0.130366
0.130227
0.130065
0.129879
0.129668
0.129431
0.129169
0.128881
0.128568
0.12823
0.127868
0.127483
0.127077
0.12665
0.126206
0.125745
0.125272
0.124788
0.124295
0.123798
0.123298
0.122799
0.122302
0.121811
0.121328
0.120854
0.120392
0.119943
0.119509
0.11909
0.118687
0.118301
0.117932
0.117579
0.117244
0.116926
0.116624
0.116339
0.116069
0.115815
0.115575
0.11535
0.115138
0.11494
0.114755
0.114582
0.11442
0.114271
0.114132
0.114004
0.113886
0.113778
0.113679
0.113588
0.113505
0.113429
0.113359
0.113294
0.113234
0.113176
0.11312
0.113063
0.113005
0.112942
0.112872
0.112794
0.112704
0.1126
0.11248
0.11234
0.112178
0.111991
0.111777
0.111535
0.111263
0.11096
0.110625
0.110261
0.109867
0.109445
0.108999
0.108533
0.108049
0.107553
0.107051
0.106546
0.106044
0.105551
0.105071
0.104608
0.104167
0.10375
0.103359
0.102997
0.102664
0.102359
0.102083
0.101834
0.101611
0.101411
0.101231
0.10107
0.100924
0.100791
0.100667
0.100551
0.100438
0.100328
0.100217
0.100105
0.0999883
0.0998668
0.0997393
0.0996051
0.0994637
0.0993153
0.0991599
0.0989982
0.0988308
0.0986589
0.0984835
0.0983063
0.0981287
0.0979523
0.0977791
0.0976108
0.0974493
0.0972964
0.0971537
0.097023
0.0969056
0.0968028
0.0967157
0.0966451
0.0965914
0.0965549
0.0965357
0.0965333
0.0965473
0.0965769
0.096621
0.0966785
0.0967482
0.0968287
0.0969187
0.0970166
0.0971212
0.0972312
0.0973454
0.0974628
0.0975824
0.0977034
0.0978253
0.0979474
0.0980694
0.0981911
0.0983123
0.098433
0.0985531
0.0986728
0.0987921
0.0989112
0.0990301
0.0991492
0.0992684
0.099388
0.099508
0.0996287
0.0997501
0.0998724
0.0999956
0.10012
0.100245
0.100372
0.1005
0.10063
0.100762
0.100895
0.101031
0.101169
0.101309
0.101451
0.101597
0.101745
0.101897
0.102051
0.102209
0.10237
0.102534
0.102702
0.102873
0.103047
0.103224
0.103403
0.103586
0.103772
0.10396
0.104151
0.104344
0.10454
0.104739
0.10494
0.105145
0.105352
0.105563
0.105778
0.105997
0.10622
0.106447
0.10668
0.106917
0.10716
0.107407
0.10766
0.107917
0.108178
0.108442
0.108708
0.108976
0.109243
0.109509
0.109773
0.110032
0.110285
0.110531
0.110769
0.110997
0.111216
0.111424
0.111623
0.111813
0.111995
0.112171
0.112341
0.112508
0.112671
0.112831
0.112984
0.11313
0.113264
0.113383
0.113481
0.113558
0.113609
0.113636
0.11364
0.113625
0.113596
0.11356
0.113521
0.113485
0.113457
0.113441
0.113438
0.113451
0.11348
0.113526
0.113588
0.113666
0.11376
0.113867
0.113867
0.1
0.0996355
0.0994205
0.0993147
0.099263
0.0992205
0.0991568
0.0990559
0.0989126
0.0987301
0.0985171
0.0982864
0.0980527
0.0978315
0.0976372
0.0974825
0.0973767
0.097326
0.097333
0.0973978
0.0975184
0.0976917
0.097914
0.0981813
0.0984892
0.0988331
0.099208
0.0996083
0.100028
0.10046
0.100899
0.101338
0.10177
0.102191
0.102596
0.102982
0.103347
0.10369
0.104011
0.104313
0.104597
0.104868
0.105128
0.105382
0.105634
0.105886
0.106141
0.1064
0.106665
0.106935
0.10721
0.107487
0.107766
0.108042
0.108314
0.10858
0.108838
0.109086
0.109322
0.109548
0.109762
0.109966
0.110161
0.11035
0.110533
0.110715
0.110898
0.111084
0.111277
0.111479
0.111692
0.111919
0.112162
0.112422
0.112699
0.112995
0.113309
0.113642
0.113992
0.11436
0.114743
0.115142
0.115554
0.115978
0.116412
0.116856
0.117307
0.117764
0.118226
0.118691
0.119157
0.119624
0.12009
0.120554
0.121014
0.121471
0.121922
0.122368
0.122806
0.123237
0.12366
0.124073
0.124477
0.124871
0.125255
0.125628
0.125989
0.126339
0.126677
0.127003
0.127317
0.127619
0.127908
0.128184
0.128447
0.128698
0.128935
0.12916
0.129371
0.129569
0.129754
0.129926
0.130083
0.130227
0.130357
0.130472
0.130573
0.130658
0.130729
0.130783
0.130821
0.130842
0.130845
0.13083
0.130795
0.130741
0.130666
0.13057
0.130451
0.13031
0.130145
0.129955
0.129741
0.129501
0.129236
0.128946
0.12863
0.12829
0.127926
0.12754
0.127132
0.126704
0.126259
0.125797
0.125323
0.124838
0.124346
0.123847
0.123347
0.122847
0.122349
0.121857
0.121372
0.120897
0.120433
0.119983
0.119546
0.119125
0.118719
0.11833
0.117958
0.117603
0.117265
0.116943
0.116638
0.116349
0.116076
0.115818
0.115575
0.115346
0.115131
0.114929
0.11474
0.114564
0.114399
0.114246
0.114104
0.113973
0.113851
0.113739
0.113637
0.113542
0.113456
0.113376
0.113303
0.113235
0.113171
0.113109
0.113049
0.112989
0.112926
0.112859
0.112785
0.112702
0.112609
0.112501
0.112376
0.112232
0.112066
0.111876
0.111659
0.111414
0.111139
0.110834
0.110499
0.110133
0.109739
0.109318
0.108874
0.108409
0.107928
0.107435
0.106936
0.106435
0.105938
0.10545
0.104976
0.104519
0.104084
0.103673
0.103288
0.102932
0.102605
0.102307
0.102037
0.101794
0.101576
0.101381
0.101207
0.10105
0.100909
0.10078
0.10066
0.100547
0.100438
0.100331
0.100223
0.100112
0.0999977
0.099878
0.0997521
0.0996193
0.0994793
0.099332
0.0991779
0.0990174
0.0988513
0.0986806
0.0985067
0.098331
0.0981549
0.0979804
0.097809
0.0976427
0.0974831
0.0973322
0.0971917
0.0970629
0.0969475
0.0968466
0.0967612
0.0966921
0.0966397
0.0966044
0.096586
0.0965842
0.0965985
0.0966281
0.096672
0.0967292
0.0967983
0.0968781
0.0969672
0.0970642
0.0971678
0.0972768
0.0973899
0.0975063
0.0976248
0.0977449
0.0978658
0.097987
0.0981081
0.098229
0.0983493
0.0984691
0.0985884
0.0987072
0.0988256
0.0989437
0.0990616
0.0991796
0.0992977
0.0994161
0.0995349
0.0996543
0.0997744
0.0998953
0.100017
0.10014
0.100264
0.10039
0.100517
0.100645
0.100775
0.100908
0.101042
0.101179
0.101318
0.10146
0.101604
0.101752
0.101902
0.102056
0.102213
0.102373
0.102537
0.102703
0.102873
0.103047
0.103223
0.103402
0.103584
0.103768
0.103956
0.104145
0.104338
0.104533
0.10473
0.10493
0.105133
0.105339
0.105549
0.105762
0.105979
0.1062
0.106426
0.106657
0.106892
0.107133
0.107378
0.107628
0.107882
0.10814
0.108401
0.108664
0.108928
0.109192
0.109454
0.109713
0.109968
0.110218
0.11046
0.110694
0.110919
0.111135
0.111341
0.111538
0.111728
0.111911
0.112088
0.112262
0.112433
0.112602
0.112768
0.11293
0.113085
0.113229
0.113358
0.113468
0.113555
0.113617
0.113653
0.113666
0.113658
0.113635
0.113603
0.113567
0.113533
0.113505
0.113487
0.113482
0.113492
0.113518
0.113559
0.113617
0.113691
0.11378
0.113883
0.113883
0.1
0.0996488
0.0994438
0.0993439
0.0992951
0.0992539
0.099192
0.0990946
0.0989569
0.0987821
0.0985785
0.0983579
0.0981345
0.0979232
0.0977378
0.0975905
0.0974903
0.0974431
0.0974516
0.0975161
0.0976348
0.0978049
0.0980231
0.0982855
0.0985878
0.0989257
0.0992941
0.0996874
0.1001
0.100525
0.100956
0.101386
0.101811
0.102223
0.102621
0.102999
0.103356
0.103691
0.104005
0.1043
0.104577
0.10484
0.105093
0.10534
0.105584
0.105828
0.106075
0.106326
0.106583
0.106846
0.107113
0.107383
0.107654
0.107924
0.10819
0.108451
0.108704
0.108949
0.109183
0.109408
0.109622
0.109828
0.110026
0.110218
0.110407
0.110595
0.110785
0.11098
0.111182
0.111394
0.111617
0.111856
0.112109
0.11238
0.112668
0.112974
0.113299
0.113642
0.114002
0.114378
0.11477
0.115177
0.115596
0.116027
0.116468
0.116917
0.117374
0.117836
0.118302
0.118772
0.119242
0.119713
0.120182
0.12065
0.121114
0.121574
0.122028
0.122477
0.122918
0.123352
0.123777
0.124194
0.1246
0.124997
0.125383
0.125758
0.126122
0.126474
0.126815
0.127143
0.127458
0.127761
0.128052
0.128329
0.128594
0.128845
0.129083
0.129308
0.12952
0.129718
0.129902
0.130073
0.13023
0.130373
0.130501
0.130615
0.130713
0.130797
0.130865
0.130916
0.130951
0.130969
0.130969
0.13095
0.130912
0.130854
0.130775
0.130675
0.130552
0.130407
0.130238
0.130044
0.129826
0.129583
0.129315
0.129021
0.128703
0.12836
0.127994
0.127606
0.127196
0.126767
0.12632
0.125858
0.125383
0.124897
0.124403
0.123904
0.123403
0.122902
0.122403
0.121909
0.121423
0.120946
0.12048
0.120027
0.119588
0.119164
0.118755
0.118363
0.117987
0.117629
0.117286
0.116961
0.116652
0.116359
0.116082
0.11582
0.115572
0.115339
0.11512
0.114914
0.114721
0.114541
0.114372
0.114215
0.114069
0.113934
0.113808
0.113692
0.113586
0.113487
0.113397
0.113313
0.113236
0.113163
0.113095
0.113029
0.112964
0.112899
0.112832
0.11276
0.112682
0.112594
0.112496
0.112383
0.112254
0.112105
0.111935
0.111741
0.111521
0.111273
0.110995
0.110688
0.110351
0.109985
0.109591
0.109171
0.108728
0.108266
0.107788
0.107299
0.106804
0.106308
0.105817
0.105335
0.104867
0.104416
0.103988
0.103584
0.103207
0.102858
0.102538
0.102246
0.101983
0.101747
0.101535
0.101347
0.101178
0.101028
0.100892
0.100767
0.100652
0.100543
0.100437
0.100333
0.100228
0.10012
0.100008
0.0998909
0.0997668
0.0996358
0.0994974
0.0993518
0.0991991
0.0990401
0.0988755
0.0987064
0.0985342
0.0983602
0.0981861
0.0980136
0.0978443
0.0976802
0.097523
0.0973745
0.0972362
0.0971098
0.0969966
0.0968978
0.0968143
0.0967469
0.0966961
0.0966619
0.0966444
0.0966432
0.0966579
0.0966875
0.0967312
0.0967879
0.0968564
0.0969353
0.0970234
0.0971193
0.0972217
0.0973295
0.0974415
0.0975566
0.0976741
0.097793
0.0979128
0.098033
0.0981531
0.098273
0.0983924
0.0985113
0.0986295
0.0987473
0.0988646
0.0989816
0.0990984
0.0992151
0.099332
0.099449
0.0995664
0.0996844
0.099803
0.0999223
0.100043
0.100164
0.100287
0.10041
0.100536
0.100663
0.100792
0.100922
0.101055
0.101191
0.101329
0.101469
0.101613
0.101759
0.101909
0.102061
0.102217
0.102377
0.102539
0.102705
0.102874
0.103047
0.103222
0.1034
0.103581
0.103764
0.103951
0.104139
0.10433
0.104524
0.10472
0.104918
0.10512
0.105324
0.105532
0.105743
0.105958
0.106178
0.106401
0.10663
0.106863
0.1071
0.107343
0.10759
0.10784
0.108095
0.108352
0.108611
0.108871
0.109131
0.109389
0.109643
0.109894
0.110138
0.110376
0.110606
0.110827
0.11104
0.111244
0.11144
0.111629
0.111812
0.111992
0.11217
0.112346
0.112521
0.112696
0.112867
0.113033
0.113189
0.11333
0.113452
0.113551
0.113625
0.113673
0.113695
0.113696
0.11368
0.113653
0.113621
0.113588
0.11356
0.113541
0.113534
0.11354
0.113561
0.113598
0.113651
0.11372
0.113804
0.113902
0.113902
0.1
0.0996645
0.0994709
0.0993777
0.099332
0.0992924
0.0992325
0.099139
0.0990078
0.0988418
0.0986485
0.0984393
0.0982277
0.0980275
0.0978522
0.0977132
0.0976192
0.0975759
0.0975861
0.0976502
0.0977668
0.0979334
0.0981469
0.0984037
0.0986998
0.0990308
0.0993918
0.0997773
0.100181
0.100597
0.101019
0.101441
0.101856
0.10226
0.102648
0.103017
0.103365
0.103692
0.103998
0.104284
0.104553
0.104807
0.105052
0.10529
0.105525
0.10576
0.105998
0.106241
0.106489
0.106742
0.107001
0.107263
0.107526
0.107789
0.108049
0.108304
0.108553
0.108793
0.109026
0.109249
0.109464
0.109671
0.109872
0.110069
0.110264
0.11046
0.110658
0.110862
0.111075
0.111298
0.111533
0.111783
0.112049
0.112332
0.112633
0.112951
0.113288
0.113642