# vtk DataFile Version 3.0
LBM Fluid Grid
ASCII
DATASET STRUCTURED_POINTS
DIMENSIONS 400 150 1
ORIGIN 0 0 0
SPACING 1 1 1
POINT_DATA 60000
SCALARS VelocityMagnitude double 1
LOOKUP_TABLE default
0.1
0.0999433
0.0998957
0.0998566
0.0998278
0.0998103
0.0998049
0.0998119
0.0998311
0.0998619
0.0999035
0.0999546
0.100014
0.10008
0.100151
0.100225
0.100302
0.10038
0.100458
0.100536
0.100614
0.100691
0.100768
0.100845
0.100923
0.101004
0.101088
0.101176
0.10127
0.10137
0.101478
0.101594
0.101719
0.101853
0.101997
0.102151
0.102315
0.102489
0.102672
0.102864
0.103065
0.103274
0.103491
0.103715
0.103946
0.104183
0.104427
0.104677
0.104934
0.105197
0.105466
0.105742
0.106025
0.106316
0.106615
0.106922
0.107239
0.107564
0.107899
0.108244
0.108599
0.108964
0.109339
0.109725
0.110121
0.110527
0.110943
0.111368
0.111802
0.112245
0.112696
0.113154
0.11362
0.114092
0.11457
0.115053
0.115541
0.116034
0.116532
0.117032
0.117536
0.118043
0.118552
0.119063
0.119576
0.12009
0.120606
0.121121
0.121637
0.122152
0.122667
0.12318
0.123692
0.124201
0.124707
0.125211
0.12571
0.126204
0.126694
0.127178
0.127655
0.128126
0.128589
0.129045
0.129492
0.12993
0.130358
0.130777
0.131186
0.131584
0.131972
0.132348
0.132714
0.133068
0.133411
0.133742
0.134062
0.13437
0.134668
0.134953
0.135228
0.135491
0.135744
0.135985
0.136216
0.136437
0.136647
0.136846
0.137036
0.137216
0.137386
0.137546
0.137697
0.137839
0.137972
0.138095
0.13821
0.138316
0.138413
0.138502
0.138582
0.138654
0.138719
0.138775
0.138824
0.138865
0.138899
0.138925
0.138945
0.138958
0.138965
0.138965
0.138959
0.138947
0.13893
0.138908
0.13888
0.138847
0.13881
0.138769
0.138723
0.138673
0.13862
0.138563
0.138503
0.138439
0.138372
0.138303
0.138231
0.138156
0.138079
0.137999
0.137917
0.137833
0.137747
0.137659
0.137568
0.137477
0.137383
0.137288
0.137191
0.137092
0.136993
0.136892
0.136789
0.136686
0.136581
0.136475
0.136369
0.136262
0.136154
0.136045
0.135936
0.135827
0.135717
0.135608
0.135498
0.135388
0.135278
0.135168
0.135058
0.134949
0.134839
0.134731
0.134622
0.134514
0.134406
0.134299
0.134193
0.134086
0.133981
0.133876
0.133771
0.133667
0.133563
0.13346
0.133357
0.133255
0.133154
0.133053
0.132953
0.132853
0.132754
0.132655
0.132557
0.13246
0.132364
0.132268
0.132173
0.132078
0.131985
0.131892
0.1318
0.131709
0.131619
0.131529
0.131441
0.131353
0.131266
0.13118
0.131095
0.131011
0.130927
0.130845
0.130763
0.130682
0.130602
0.130523
0.130444
0.130366
0.130289
0.130213
0.130138
0.130063
0.129989
0.129915
0.129843
0.129771
0.129699
0.129629
0.129559
0.12949
0.129421
0.129353
0.129286
0.12922
0.129154
0.129089
0.129025
0.128962
0.128899
0.128837
0.128775
0.128714
0.128654
0.128595
0.128536
0.128478
0.12842
0.128363
0.128307
0.128251
0.128196
0.128141
0.128087
0.128033
0.12798
0.127928
0.127876
0.127824
0.127773
0.127722
0.127672
0.127622
0.127573
0.127525
0.127476
0.127429
0.127381
0.127335
0.127288
0.127243
0.127197
0.127153
0.127108
0.127064
0.127021
0.126978
0.126936
0.126894
0.126853
0.126812
0.126771
0.126731
0.126691
0.126652
0.126614
0.126575
0.126538
0.1265
0.126463
0.126427
0.126391
0.126355
0.12632
0.126285
0.126251
0.126217
0.126184
0.126151
0.126119
0.126087
0.126055
0.126024
0.125993
0.125963
0.125934
0.125904
0.125876
0.125848
0.12582
0.125793
0.125766
0.12574
0.125714
0.125689
0.125664
0.12564
0.125617
0.125593
0.125571
0.125549
0.125527
0.125506
0.125485
0.125465
0.125445
0.125426
0.125408
0.12539
0.125372
0.125355
0.125339
0.125323
0.125308
0.125293
0.125279
0.125265
0.125252
0.125239
0.125228
0.125216
0.125205
0.125195
0.125186
0.125176
0.125168
0.12516
0.125153
0.125146
0.12514
0.125134
0.125129
0.125124
0.12512
0.125117
0.125114
0.125111
0.125109
0.125107
0.125106
0.125105
0.125104
0.125103
0.125103
0.125103
0.125103
0.125103
0.125103
0.125103
0.1
0.0999434
0.0998958
0.0998567
0.0998279
0.0998104
0.0998051
0.0998121
0.0998313
0.0998621
0.0999036
0.0999547
0.100014
0.10008
0.100151
0.100225
0.100302
0.10038
0.100458
0.100536
0.100613
0.10069
0.100767
0.100844
0.100923
0.101004
0.101087
0.101176
0.10127
0.10137
0.101477
0.101593
0.101718
0.101852
0.101996
0.10215
0.102314
0.102488
0.102671
0.102863
0.103064
0.103273
0.103489
0.103713
0.103944
0.104182
0.104426
0.104676
0.104932
0.105195
0.105464
0.10574
0.106024
0.106315
0.106613
0.106921
0.107237
0.107562
0.107897
0.108242
0.108597
0.108962
0.109338
0.109724
0.11012
0.110526
0.110942
0.111367
0.111801
0.112244
0.112695
0.113154
0.113619
0.114091
0.11457
0.115053
0.115542
0.116035
0.116533
0.117033
0.117538
0.118045
0.118554
0.119066
0.119579
0.120093
0.120609
0.121124
0.12164
0.122156
0.122671
0.123184
0.123696
0.124206
0.124713
0.125216
0.125715
0.12621
0.1267
0.127184
0.127662
0.128133
0.128596
0.129052
0.129499
0.129937
0.130365
0.130784
0.131193
0.131592
0.131979
0.132356
0.132721
0.133075
0.133418
0.13375
0.13407
0.134378
0.134675
0.134961
0.135235
0.135499
0.135751
0.135993
0.136224
0.136444
0.136654
0.136854
0.137043
0.137223
0.137393
0.137553
0.137704
0.137846
0.137978
0.138102
0.138216
0.138322
0.138419
0.138508
0.138588
0.13866
0.138724
0.138781
0.138829
0.13887
0.138904
0.13893
0.13895
0.138963
0.138969
0.138969
0.138964
0.138952
0.138935
0.138912
0.138884
0.138852
0.138814
0.138773
0.138727
0.138677
0.138624
0.138567
0.138506
0.138443
0.138376
0.138306
0.138234
0.138159
0.138082
0.138002
0.13792
0.137836
0.13775
0.137661
0.137571
0.137479
0.137386
0.13729
0.137193
0.137095
0.136995
0.136894
0.136792
0.136688
0.136583
0.136478
0.136371
0.136264
0.136156
0.136047
0.135938
0.135829
0.135719
0.13561
0.1355
0.135389
0.135279
0.13517
0.13506
0.13495
0.134841
0.134732
0.134624
0.134516
0.134408
0.134301
0.134194
0.134088
0.133982
0.133877
0.133772
0.133668
0.133565
0.133461
0.133359
0.133257
0.133155
0.133054
0.132954
0.132854
0.132755
0.132656
0.132559
0.132461
0.132365
0.132269
0.132174
0.13208
0.131986
0.131893
0.131801
0.13171
0.13162
0.13153
0.131442
0.131354
0.131267
0.131181
0.131096
0.131012
0.130928
0.130846
0.130764
0.130683
0.130603
0.130524
0.130445
0.130367
0.13029
0.130214
0.130138
0.130064
0.12999
0.129916
0.129843
0.129771
0.1297
0.12963
0.12956
0.12949
0.129422
0.129354
0.129287
0.129221
0.129155
0.12909
0.129026
0.128962
0.128899
0.128837
0.128776
0.128715
0.128655
0.128595
0.128536
0.128478
0.128421
0.128364
0.128307
0.128251
0.128196
0.128141
0.128087
0.128034
0.12798
0.127928
0.127876
0.127824
0.127773
0.127722
0.127672
0.127622
0.127573
0.127525
0.127476
0.127429
0.127381
0.127334
0.127288
0.127242
0.127197
0.127152
0.127108
0.127064
0.127021
0.126978
0.126935
0.126893
0.126852
0.126811
0.12677
0.12673
0.126691
0.126652
0.126613
0.126575
0.126537
0.126499
0.126462
0.126426
0.12639
0.126354
0.126319
0.126284
0.12625
0.126216
0.126183
0.12615
0.126117
0.126085
0.126054
0.126023
0.125992
0.125962
0.125932
0.125903
0.125874
0.125846
0.125818
0.125791
0.125764
0.125738
0.125712
0.125687
0.125662
0.125638
0.125615
0.125591
0.125569
0.125546
0.125525
0.125504
0.125483
0.125463
0.125443
0.125424
0.125405
0.125387
0.12537
0.125353
0.125336
0.12532
0.125305
0.12529
0.125276
0.125262
0.125249
0.125237
0.125225
0.125213
0.125202
0.125192
0.125182
0.125173
0.125165
0.125157
0.125149
0.125143
0.125136
0.125131
0.125126
0.125121
0.125117
0.125113
0.12511
0.125108
0.125105
0.125104
0.125102
0.125101
0.1251
0.1251
0.125099
0.125099
0.125099
0.125099
0.125099
0.125099
0.1
0.0999435
0.099896
0.0998571
0.0998283
0.0998109
0.0998056
0.0998126
0.0998318
0.0998626
0.099904
0.099955
0.100014
0.10008
0.10015
0.100225
0.100301
0.100379
0.100457
0.100535
0.100612
0.100689
0.100766
0.100843
0.100921
0.101002
0.101086
0.101174
0.101267
0.101368
0.101475
0.101591
0.101716
0.10185
0.101994
0.102147
0.102311
0.102485
0.102667
0.102859
0.10306
0.103269
0.103485
0.103709
0.10394
0.104177
0.104421
0.104671
0.104927
0.10519
0.105459
0.105735
0.106018
0.106309
0.106608
0.106915
0.107231
0.107557
0.107892
0.108237
0.108592
0.108958
0.109333
0.10972
0.110116
0.110523
0.110939
0.111364
0.111799
0.112242
0.112694
0.113153
0.113619
0.114091
0.11457
0.115054
0.115544
0.116037
0.116535
0.117037
0.117542
0.11805
0.11856
0.119072
0.119586
0.120101
0.120617
0.121134
0.121651
0.122167
0.122683
0.123197
0.12371
0.12422
0.124728
0.125232
0.125732
0.126228
0.126718
0.127203
0.127681
0.128152
0.128616
0.129072
0.12952
0.129958
0.130387
0.130806
0.131215
0.131614
0.132002
0.132379
0.132744
0.133098
0.133441
0.133773
0.134093
0.134401
0.134698
0.134984
0.135258
0.135521
0.135774
0.136015
0.136246
0.136466
0.136676
0.136875
0.137064
0.137244
0.137414
0.137574
0.137724
0.137866
0.137998
0.138121
0.138235
0.13834
0.138437
0.138526
0.138606
0.138677
0.138741
0.138797
0.138845
0.138886
0.138919
0.138946
0.138965
0.138978
0.138984
0.138984
0.138977
0.138965
0.138948
0.138925
0.138897
0.138864
0.138827
0.138785
0.138739
0.138689
0.138635
0.138578
0.138517
0.138453
0.138386
0.138316
0.138244
0.138169
0.138091
0.138011
0.137929
0.137845
0.137758
0.13767
0.13758
0.137487
0.137394
0.137298
0.137201
0.137102
0.137002
0.136901
0.136799
0.136695
0.13659
0.136484
0.136378
0.13627
0.136162
0.136054
0.135945
0.135835
0.135725
0.135615
0.135505
0.135395
0.135285
0.135175
0.135065
0.134956
0.134846
0.134737
0.134629
0.134521
0.134413
0.134306
0.134199
0.134093
0.133987
0.133881
0.133777
0.133672
0.133569
0.133466
0.133363
0.133261
0.133159
0.133058
0.132958
0.132858
0.132759
0.13266
0.132562
0.132465
0.132368
0.132273
0.132177
0.132083
0.131989
0.131897
0.131804
0.131713
0.131623
0.131533
0.131445
0.131357
0.13127
0.131184
0.131099
0.131015
0.130931
0.130849
0.130767
0.130686
0.130606
0.130526
0.130448
0.13037
0.130293
0.130217
0.130141
0.130066
0.129992
0.129918
0.129846
0.129774
0.129702
0.129632
0.129562
0.129492
0.129424
0.129356
0.129289
0.129222
0.129157
0.129092
0.129027
0.128964
0.128901
0.128839
0.128777
0.128716
0.128656
0.128596
0.128537
0.128479
0.128421
0.128364
0.128308
0.128252
0.128197
0.128142
0.128088
0.128034
0.127981
0.127928
0.127876
0.127824
0.127773
0.127722
0.127672
0.127622
0.127573
0.127524
0.127476
0.127428
0.127381
0.127334
0.127287
0.127242
0.127196
0.127151
0.127107
0.127063
0.127019
0.126976
0.126934
0.126892
0.12685
0.126809
0.126769
0.126728
0.126689
0.126649
0.126611
0.126572
0.126534
0.126497
0.12646
0.126423
0.126387
0.126351
0.126316
0.126281
0.126247
0.126213
0.126179
0.126146
0.126113
0.126081
0.12605
0.126018
0.125988
0.125957
0.125928
0.125898
0.12587
0.125841
0.125813
0.125786
0.125759
0.125733
0.125707
0.125682
0.125657
0.125632
0.125609
0.125585
0.125562
0.12554
0.125518
0.125497
0.125476
0.125456
0.125436
0.125417
0.125398
0.12538
0.125362
0.125345
0.125329
0.125312
0.125297
0.125282
0.125268
0.125254
0.125241
0.125228
0.125216
0.125204
0.125193
0.125183
0.125173
0.125164
0.125155
0.125147
0.12514
0.125133
0.125126
0.125121
0.125115
0.125111
0.125106
0.125103
0.1251
0.125097
0.125095
0.125093
0.125091
0.12509
0.125089
0.125089
0.125088
0.125088
0.125088
0.125088
0.125088
0.125088
0.1
0.0999437
0.0998964
0.0998577
0.099829
0.0998117
0.0998065
0.0998135
0.0998326
0.0998634
0.0999047
0.0999555
0.100014
0.10008
0.10015
0.100224
0.100301
0.100378
0.100456
0.100533
0.10061
0.100687
0.100763
0.10084
0.100919
0.100999
0.101083
0.101171
0.101264
0.101364
0.101471
0.101587
0.101711
0.101845
0.101989
0.102143
0.102306
0.102479
0.102662
0.102853
0.103054
0.103262
0.103478
0.103702
0.103932
0.104169
0.104413
0.104662
0.104918
0.105181
0.10545
0.105726
0.106009
0.1063
0.106599
0.106906
0.107222
0.107548
0.107883
0.108229
0.108584
0.10895
0.109326
0.109713
0.11011
0.110517
0.110933
0.11136
0.111795
0.112239
0.112691
0.113151
0.113617
0.114091
0.114571
0.115056
0.115546
0.116041
0.11654
0.117043
0.117549
0.118058
0.118569
0.119083
0.119598
0.120115
0.120632
0.12115
0.121669
0.122186
0.122703
0.123219
0.123733
0.124245
0.124753
0.125259
0.12576
0.126257
0.126748
0.127234
0.127713
0.128185
0.12865
0.129107
0.129555
0.129994
0.130423
0.130843
0.131252
0.131651
0.132039
0.132416
0.132782
0.133137
0.13348
0.133811
0.134131
0.134439
0.134736
0.135022
0.135296
0.135559
0.135811
0.136052
0.136283
0.136502
0.136712
0.136911
0.1371
0.137279
0.137448
0.137608
0.137758
0.137899
0.13803
0.138153
0.138266
0.138371
0.138468
0.138555
0.138635
0.138706
0.138769
0.138825
0.138872
0.138913
0.138945
0.138971
0.13899
0.139002
0.139008
0.139007
0.139001
0.138988
0.13897
0.138947
0.138918
0.138885
0.138847
0.138805
0.138758
0.138708
0.138654
0.138596
0.138535
0.138471
0.138404
0.138333
0.138261
0.138185
0.138107
0.138027
0.137944
0.13786
0.137773
0.137684
0.137594
0.137501
0.137407
0.137311
0.137214
0.137115
0.137015
0.136913
0.13681
0.136706
0.136601
0.136495
0.136389
0.136281
0.136173
0.136064
0.135955
0.135845
0.135735
0.135625
0.135515
0.135404
0.135294
0.135184
0.135074
0.134964
0.134855
0.134746
0.134637
0.134529
0.134421
0.134314
0.134207
0.1341
0.133994
0.133889
0.133784
0.13368
0.133576
0.133472
0.13337
0.133268
0.133166
0.133065
0.132964
0.132864
0.132765
0.132666
0.132568
0.132471
0.132374
0.132278
0.132183
0.132089
0.131995
0.131902
0.13181
0.131719
0.131628
0.131539
0.13145
0.131362
0.131275
0.131189
0.131104
0.13102
0.130936
0.130853
0.130771
0.13069
0.13061
0.130531
0.130452
0.130374
0.130297
0.130221
0.130145
0.13007
0.129996
0.129922
0.129849
0.129777
0.129706
0.129635
0.129565
0.129496
0.129427
0.129359
0.129292
0.129225
0.129159
0.129094
0.12903
0.128966
0.128903
0.128841
0.128779
0.128718
0.128658
0.128598
0.128539
0.128481
0.128423
0.128366
0.128309
0.128253
0.128198
0.128143
0.128088
0.128035
0.127981
0.127928
0.127876
0.127824
0.127773
0.127722
0.127672
0.127622
0.127572
0.127523
0.127475
0.127427
0.127379
0.127332
0.127286
0.12724
0.127194
0.127149
0.127105
0.127061
0.127017
0.126974
0.126931
0.126889
0.126847
0.126806
0.126765
0.126725
0.126685
0.126645
0.126606
0.126568
0.12653
0.126492
0.126455
0.126418
0.126382
0.126346
0.12631
0.126275
0.126241
0.126207
0.126173
0.12614
0.126107
0.126075
0.126043
0.126011
0.12598
0.12595
0.12592
0.12589
0.125861
0.125833
0.125805
0.125777
0.12575
0.125724
0.125698
0.125672
0.125647
0.125622
0.125598
0.125575
0.125552
0.125529
0.125507
0.125486
0.125465
0.125444
0.125424
0.125405
0.125386
0.125367
0.125349
0.125332
0.125315
0.125299
0.125283
0.125268
0.125254
0.12524
0.125226
0.125213
0.125201
0.125189
0.125178
0.125167
0.125157
0.125148
0.125139
0.125131
0.125123
0.125116
0.125109
0.125103
0.125098
0.125093
0.125089
0.125085
0.125082
0.125079
0.125076
0.125074
0.125073
0.125072
0.125071
0.12507
0.125069
0.125069
0.125069
0.125069
0.125069
0.125069
0.1
0.099944
0.099897
0.0998585
0.09983
0.0998129
0.0998077
0.0998147
0.0998338
0.0998645
0.0999057
0.0999562
0.100015
0.10008
0.10015
0.100224
0.1003
0.100377
0.100454
0.100531
0.100608
0.100684
0.10076
0.100837
0.100915
0.100995
0.101078
0.101166
0.101259
0.101359
0.101466
0.101581
0.101706
0.101839
0.101983
0.102136
0.102299
0.102472
0.102654
0.102845
0.103045
0.103253
0.103468
0.103691
0.103921
0.104158
0.104401
0.104651
0.104906
0.105169
0.105437
0.105713
0.105996
0.106287
0.106586
0.106893
0.10721
0.107536
0.107871
0.108217
0.108573
0.108939
0.109316
0.109703
0.1101
0.110508
0.110926
0.111353
0.111789
0.112234
0.112687
0.113148
0.113616
0.11409
0.114571
0.115058
0.115549
0.116046
0.116546
0.117051
0.117559
0.118069
0.118583
0.119098
0.119615
0.120134
0.120653
0.121173
0.121693
0.122213
0.122732
0.12325
0.123765
0.124279
0.124789
0.125296
0.125799
0.126297
0.12679
0.127277
0.127758
0.128231
0.128697
0.129155
0.129604
0.130044
0.130474
0.130894
0.131304
0.131704
0.132092
0.13247
0.132836
0.13319
0.133533
0.133865
0.134185
0.134493
0.13479
0.135075
0.135349
0.135612
0.135864
0.136104
0.136334
0.136554
0.136762
0.136961
0.137149
0.137328
0.137496
0.137655
0.137805
0.137945
0.138076
0.138197
0.13831
0.138414
0.13851
0.138597
0.138676
0.138746
0.138809
0.138863
0.13891
0.13895
0.138982
0.139007
0.139025
0.139036
0.139041
0.13904
0.139033
0.13902
0.139001
0.138977
0.138948
0.138914
0.138876
0.138833
0.138786
0.138735
0.13868
0.138622
0.13856
0.138496
0.138428
0.138357
0.138284
0.138208
0.138129
0.138049
0.137966
0.13788
0.137793
0.137704
0.137613
0.13752
0.137426
0.137329
0.137232
0.137132
0.137032
0.13693
0.136827
0.136723
0.136617
0.136511
0.136404
0.136296
0.136187
0.136078
0.135969
0.135859
0.135749
0.135638
0.135528
0.135417
0.135307
0.135196
0.135086
0.134976
0.134867
0.134757
0.134649
0.13454
0.134432
0.134324
0.134217
0.134111
0.134005
0.133899
0.133794
0.13369
0.133586
0.133482
0.133379
0.133277
0.133175
0.133074
0.132973
0.132873
0.132774
0.132675
0.132577
0.132479
0.132383
0.132286
0.132191
0.132097
0.132003
0.13191
0.131818
0.131726
0.131636
0.131546
0.131457
0.131369
0.131282
0.131196
0.131111
0.131026
0.130942
0.13086
0.130778
0.130697
0.130616
0.130537
0.130458
0.13038
0.130303
0.130226
0.13015
0.130075
0.130001
0.129927
0.129854
0.129782
0.12971
0.129639
0.129569
0.1295
0.129431
0.129363
0.129296
0.129229
0.129163
0.129098
0.129033
0.128969
0.128906
0.128844
0.128782
0.128721
0.12866
0.1286
0.128541
0.128483
0.128425
0.128367
0.128311
0.128254
0.128199
0.128144
0.128089
0.128035
0.127981
0.127928
0.127876
0.127824
0.127772
0.127721
0.127671
0.127621
0.127571
0.127522
0.127473
0.127425
0.127377
0.12733
0.127283
0.127237
0.127191
0.127146
0.127101
0.127057
0.127013
0.12697
0.126927
0.126884
0.126842
0.126801
0.12676
0.126719
0.126679
0.12664
0.1266
0.126562
0.126523
0.126485
0.126448
0.126411
0.126374
0.126338
0.126302
0.126267
0.126232
0.126198
0.126164
0.12613
0.126097
0.126065
0.126032
0.126001
0.12597
0.125939
0.125909
0.125879
0.125849
0.125821
0.125792
0.125765
0.125737
0.12571
0.125684
0.125658
0.125633
0.125608
0.125584
0.12556
0.125536
0.125514
0.125491
0.125469
0.125448
0.125427
0.125407
0.125387
0.125368
0.125349
0.125331
0.125313
0.125296
0.12528
0.125264
0.125248
0.125233
0.125219
0.125205
0.125192
0.125179
0.125167
0.125156
0.125145
0.125135
0.125125
0.125116
0.125107
0.125099
0.125092
0.125085
0.125079
0.125073
0.125068
0.125064
0.12506
0.125056
0.125053
0.12505
0.125048
0.125046
0.125045
0.125044
0.125043
0.125043
0.125042
0.125042
0.125042
0.125042
0.125042
0.1
0.0999444
0.0998977
0.0998595
0.0998313
0.0998143
0.0998092
0.0998163
0.0998354
0.0998659
0.0999069
0.0999572
0.100015
0.10008
0.10015
0.100223
0.100298
0.100375
0.100452
0.100529
0.100605
0.10068
0.100756
0.100832
0.10091
0.10099
0.101073
0.10116
0.101253
0.101352
0.101459
0.101574
0.101698
0.101831
0.101974
0.102127
0.102289
0.102462
0.102643
0.102834
0.103033
0.103241
0.103456
0.103678
0.103908
0.104144
0.104386
0.104635
0.104891
0.105153
0.105421
0.105697
0.10598
0.10627
0.106569
0.106877
0.107194
0.10752
0.107856
0.108202
0.108558
0.108925
0.109302
0.10969
0.110089
0.110497
0.110916
0.111344
0.111781
0.112227
0.112681
0.113144
0.113613
0.114089
0.114572
0.11506
0.115554
0.116052
0.116555
0.117061
0.117571
0.118084
0.1186
0.119117
0.119637
0.120158
0.12068
0.121202
0.121725
0.122247
0.122769
0.123289
0.123807
0.124323
0.124835
0.125345
0.12585
0.12635
0.126844
0.127333
0.127815
0.12829
0.128758
0.129217
0.129667
0.130108
0.130539
0.130961
0.131371
0.131771
0.13216
0.132538
0.132904
0.133259
0.133603
0.133934
0.134254
0.134562
0.134859
0.135144
0.135418
0.13568
0.135931
0.136171
0.136401
0.136619
0.136828
0.137025
0.137213
0.13739
0.137558
0.137716
0.137865
0.138004
0.138134
0.138255
0.138367
0.13847
0.138564
0.13865
0.138728
0.138798
0.138859
0.138913
0.138959
0.138997
0.139029
0.139053
0.13907
0.13908
0.139084
0.139082
0.139074
0.13906
0.139041
0.139016
0.138986
0.138952
0.138912
0.138869
0.138821
0.138769
0.138714
0.138655
0.138593
0.138527
0.138459
0.138387
0.138313
0.138237
0.138158
0.138076
0.137993
0.137907
0.137819
0.137729
0.137638
0.137544
0.137449
0.137353
0.137254
0.137155
0.137054
0.136951
0.136848
0.136743
0.136637
0.136531
0.136423
0.136315
0.136206
0.136097
0.135987
0.135877
0.135766
0.135655
0.135545
0.135434
0.135323
0.135212
0.135102
0.134992
0.134882
0.134772
0.134663
0.134554
0.134446
0.134338
0.134231
0.134124
0.134018
0.133912
0.133807
0.133702
0.133598
0.133494
0.133391
0.133289
0.133187
0.133085
0.132984
0.132884
0.132785
0.132686
0.132587
0.13249
0.132393
0.132297
0.132201
0.132106
0.132012
0.131919
0.131827
0.131735
0.131645
0.131555
0.131466
0.131378
0.131291
0.131204
0.131119
0.131034
0.13095
0.130868
0.130785
0.130704
0.130624
0.130544
0.130465
0.130387
0.130309
0.130233
0.130157
0.130081
0.130007
0.129933
0.12986
0.129787
0.129716
0.129645
0.129574
0.129505
0.129436
0.129367
0.1293
0.129233
0.129167
0.129102
0.129037
0.128973
0.128909
0.128847
0.128785
0.128723
0.128663
0.128603
0.128543
0.128484
0.128426
0.128369
0.128312
0.128255
0.128199
0.128144
0.128089
0.128035
0.127981
0.127928
0.127875
0.127823
0.127771
0.12772
0.127669
0.127619
0.127569
0.127519
0.12747
0.127422
0.127374
0.127327
0.12728
0.127233
0.127187
0.127141
0.127096
0.127052
0.127008
0.126964
0.126921
0.126878
0.126836
0.126794
0.126753
0.126712
0.126671
0.126631
0.126592
0.126553
0.126514
0.126476
0.126438
0.126401
0.126364
0.126327
0.126291
0.126255
0.12622
0.126186
0.126151
0.126117
0.126084
0.126051
0.126019
0.125986
0.125955
0.125924
0.125893
0.125863
0.125833
0.125804
0.125776
0.125747
0.12572
0.125693
0.125666
0.12564
0.125614
0.125589
0.125564
0.12554
0.125516
0.125493
0.12547
0.125448
0.125426
0.125405
0.125384
0.125364
0.125344
0.125325
0.125307
0.125289
0.125271
0.125254
0.125238
0.125222
0.125207
0.125192
0.125178
0.125164
0.125151
0.125139
0.125127
0.125116
0.125105
0.125095
0.125085
0.125076
0.125068
0.12506
0.125053
0.125047
0.125041
0.125035
0.12503
0.125026
0.125022
0.125019
0.125016
0.125014
0.125012
0.12501
0.125009
0.125008
0.125007
0.125007
0.125006
0.125006
0.125006
0.125006
0.1
0.0999449
0.0998986
0.0998608
0.0998329
0.0998161
0.0998111
0.0998182
0.0998372
0.0998676
0.0999083
0.0999583
0.100016
0.10008
0.100149
0.100222
0.100297
0.100373
0.100449
0.100525
0.100601
0.100676
0.100751
0.100827
0.100904
0.100983
0.101066
0.101153
0.101245
0.101344
0.101451
0.101565
0.101689
0.101821
0.101964
0.102116
0.102278
0.10245
0.102631
0.102821
0.103019
0.103226
0.10344
0.103662
0.103891
0.104126
0.104368
0.104617
0.104872
0.105133
0.105401
0.105677
0.105959
0.10625
0.106549
0.106857
0.107173
0.1075
0.107836
0.108183
0.10854
0.108907
0.109286
0.109674
0.110074
0.110483
0.110903
0.111333
0.111771
0.112219
0.112675
0.113139
0.11361
0.114088
0.114573
0.115063
0.115559
0.116059
0.116564
0.117073
0.117586
0.118102
0.11862
0.119141
0.119663
0.120187
0.120712
0.121238
0.121764
0.122289
0.122814
0.123337
0.123858
0.124376
0.124892
0.125404
0.125911
0.126414
0.126911
0.127402
0.127886
0.128363
0.128832
0.129293
0.129744
0.130187
0.130619
0.131042
0.131453
0.131854
0.132244
0.132622
0.132989
0.133344
0.133687
0.134019
0.134339
0.134647
0.134943
0.135228
0.135501
0.135763
0.136014
0.136253
0.136482
0.1367
0.136907
0.137104
0.137291
0.137467
0.137634
0.137791
0.137938
0.138076
0.138205
0.138325
0.138436
0.138537
0.138631
0.138716
0.138792
0.13886
0.138921
0.138973
0.139018
0.139055
0.139085
0.139108
0.139125
0.139134
0.139137
0.139134
0.139125
0.13911
0.139089
0.139064
0.139033
0.138997
0.138957
0.138912
0.138864
0.138811
0.138755
0.138695
0.138632
0.138566
0.138496
0.138424
0.13835
0.138272
0.138192
0.13811
0.138026
0.137939
0.137851
0.13776
0.137668
0.137574
0.137478
0.137381
0.137282
0.137182
0.13708
0.136977
0.136873
0.136768
0.136662
0.136555
0.136447
0.136338
0.136229
0.136119
0.136009
0.135898
0.135787
0.135676
0.135565
0.135454
0.135343
0.135232
0.135121
0.13501
0.1349
0.13479
0.134681
0.134572
0.134463
0.134355
0.134247
0.13414
0.134034
0.133928
0.133822
0.133717
0.133613
0.133509
0.133405
0.133303
0.133201
0.133099
0.132998
0.132897
0.132798
0.132699
0.1326
0.132502
0.132405
0.132309
0.132213
0.132118
0.132024
0.131931
0.131838
0.131746
0.131656
0.131566
0.131476
0.131388
0.131301
0.131214
0.131129
0.131044
0.13096
0.130877
0.130794
0.130713
0.130632
0.130552
0.130473
0.130395
0.130317
0.13024
0.130164
0.130088
0.130014
0.12994
0.129866
0.129794
0.129722
0.12965
0.12958
0.12951
0.129441
0.129372
0.129305
0.129238
0.129171
0.129106
0.129041
0.128976
0.128913
0.12885
0.128787
0.128726
0.128665
0.128605
0.128545
0.128486
0.128427
0.12837
0.128312
0.128256
0.128199
0.128144
0.128089
0.128034
0.12798
0.127927
0.127873
0.127821
0.127769
0.127717
0.127666
0.127615
0.127565
0.127515
0.127466
0.127417
0.127369
0.127321
0.127274
0.127227
0.127181
0.127135
0.127089
0.127044
0.127
0.126956
0.126912
0.126869
0.126826
0.126784
0.126743
0.126701
0.12666
0.12662
0.12658
0.126541
0.126502
0.126463
0.126425
0.126387
0.12635
0.126313
0.126276
0.12624
0.126205
0.126169
0.126135
0.1261
0.126067
0.126033
0.126
0.125968
0.125936
0.125904
0.125873
0.125843
0.125813
0.125783
0.125754
0.125725
0.125697
0.125669
0.125642
0.125616
0.125589
0.125564
0.125538
0.125514
0.12549
0.125466
0.125443
0.12542
0.125398
0.125376
0.125355
0.125334
0.125314
0.125295
0.125276
0.125257
0.125239
0.125222
0.125205
0.125188
0.125173
0.125157
0.125143
0.125129
0.125115
0.125102
0.12509
0.125078
0.125067
0.125057
0.125047
0.125037
0.125029
0.12502
0.125013
0.125006
0.124999
0.124994
0.124988
0.124984
0.12498
0.124976
0.124973
0.12497
0.124968
0.124966
0.124964
0.124963
0.124962
0.124962
0.124961
0.124961
0.124961
0.124961
0.1
0.0999455
0.0998997
0.0998622
0.0998347
0.0998181
0.0998133
0.0998205
0.0998394
0.0998696
0.09991
0.0999596
0.100017
0.100081
0.100149
0.100221
0.100295
0.10037
0.100446
0.100521
0.100596
0.100671
0.100745
0.10082
0.100897
0.100976
0.101058
0.101144
0.101236
0.101335
0.101441
0.101555
0.101678
0.10181
0.101952
0.102103
0.102264
0.102435
0.102615
0.102805
0.103002
0.103208
0.103422
0.103643
0.103871
0.104105
0.104347
0.104594
0.104849
0.10511
0.105377
0.105652
0.105935
0.106226
0.106525
0.106832
0.107149
0.107476
0.107813
0.10816
0.108518
0.108886
0.109266
0.109655
0.110056
0.110467
0.110888
0.111319
0.111759
0.112209
0.112666
0.113132
0.113606
0.114086
0.114573
0.115066
0.115564
0.116068
0.116576
0.117088
0.117604
0.118123
0.118644
0.119169
0.119695
0.120222
0.120751
0.12128
0.121809
0.122338
0.122867
0.123393
0.123918
0.12444
0.124959
0.125474
0.125984
0.12649
0.12699
0.127483
0.12797
0.128449
0.12892
0.129383
0.129836
0.13028
0.130714
0.131137
0.13155
0.131952
0.132342
0.132721
0.133088
0.133444
0.133787
0.134119
0.134439
0.134747
0.135043
0.135327
0.1356
0.135861
0.136111
0.13635
0.136578
0.136795
0.137001
0.137197
0.137382
0.137558
0.137723
0.137879
0.138025
0.138162
0.138289
0.138407
0.138517
0.138617
0.138709
0.138793
0.138868
0.138934
0.138993
0.139044
0.139088
0.139124
0.139153
0.139174
0.139189
0.139197
0.139199
0.139194
0.139184
0.139168
0.139146
0.139119
0.139088
0.139051
0.13901
0.138964
0.138914
0.138861
0.138803
0.138743
0.138678
0.138611
0.138541
0.138468
0.138392
0.138314
0.138233
0.13815
0.138065
0.137977
0.137888
0.137797
0.137704
0.137609
0.137512
0.137414
0.137315
0.137214
0.137112
0.137008
0.136903
0.136797
0.136691
0.136583
0.136474
0.136365
0.136255
0.136145
0.136034
0.135923
0.135812
0.1357
0.135589
0.135477
0.135365
0.135254
0.135143
0.135032
0.134921
0.134811
0.134701
0.134592
0.134483
0.134374
0.134266
0.134159
0.134052
0.133946
0.13384
0.133735
0.13363
0.133526
0.133422
0.133319
0.133216
0.133115
0.133013
0.132913
0.132813
0.132713
0.132614
0.132516
0.132419
0.132322
0.132226
0.132131
0.132037
0.131943
0.131851
0.131759
0.131668
0.131577
0.131488
0.1314
0.131312
0.131225
0.131139
0.131054
0.13097
0.130887
0.130804
0.130722
0.130641
0.130561
0.130482
0.130403
0.130325
0.130248
0.130172
0.130096
0.130021
0.129947
0.129873
0.1298
0.129728
0.129656
0.129586
0.129515
0.129446
0.129377
0.129309
0.129242
0.129175
0.129109
0.129044
0.128979
0.128915
0.128852
0.12879
0.128728
0.128666
0.128606
0.128546
0.128486
0.128428
0.128369
0.128312
0.128255
0.128198
0.128142
0.128087
0.128032
0.127977
0.127924
0.12787
0.127817
0.127765
0.127713
0.127661
0.12761
0.127559
0.127509
0.12746
0.12741
0.127362
0.127313
0.127266
0.127218
0.127172
0.127125
0.127079
0.127034
0.126989
0.126945
0.126901
0.126857
0.126814
0.126771
0.126729
0.126687
0.126646
0.126605
0.126565
0.126525
0.126485
0.126446
0.126408
0.126369
0.126331
0.126294
0.126257
0.126221
0.126184
0.126149
0.126114
0.126079
0.126044
0.126011
0.125977
0.125944
0.125912
0.12588
0.125848
0.125817
0.125786
0.125756
0.125727
0.125697
0.125669
0.12564
0.125613
0.125586
0.125559
0.125533
0.125507
0.125481
0.125457
0.125432
0.125409
0.125385
0.125363
0.12534
0.125319
0.125297
0.125277
0.125257
0.125237
0.125218
0.125199
0.125181
0.125164
0.125147
0.12513
0.125115
0.125099
0.125085
0.125071
0.125057
0.125044
0.125032
0.125021
0.125009
0.124999
0.124989
0.12498
0.124971
0.124963
0.124956
0.124949
0.124943
0.124937
0.124932
0.124927
0.124923
0.12492
0.124917
0.124914
0.124912
0.12491
0.124909
0.124908
0.124907
0.124906
0.124906
0.124906
0.124906
0.1
0.0999461
0.0999009
0.0998639
0.0998368
0.0998205
0.0998159
0.0998231
0.0998419
0.0998719
0.0999119
0.099961
0.100018
0.100081
0.100148
0.10022
0.100293
0.100367
0.100442
0.100516
0.10059
0.100664
0.100738
0.100813
0.100889
0.100967
0.101048
0.101134
0.101226
0.101324
0.101429
0.101542
0.101665
0.101796
0.101937
0.102088
0.102249
0.102419
0.102598
0.102786
0.102983
0.103188
0.1034
0.10362
0.103847
0.104081
0.104322
0.104569
0.104822
0.105082
0.10535
0.105624
0.105907
0.106197
0.106496
0.106804
0.107121
0.107449
0.107786
0.108134
0.108492
0.108862
0.109242
0.109633
0.110035
0.110447
0.11087
0.111303
0.111745
0.112196
0.112656
0.113124
0.1136
0.114083
0.114573
0.115069
0.11557
0.116077
0.116588
0.117104
0.117624
0.118146
0.118672
0.1192
0.11973
0.120262
0.120795
0.121329
0.121862
0.122395
0.122928
0.123459
0.123987
0.124513
0.125036
0.125555
0.126069
0.126578
0.127081
0.127577
0.128067
0.128549
0.129022
0.129487
0.129942
0.130388
0.130824
0.131248
0.131662
0.132065
0.132456
0.132836
0.133204
0.133559
0.133903
0.134235
0.134555
0.134862
0.135158
0.135442
0.135714
0.135975
0.136224
0.136462
0.136689
0.136904
0.137109
0.137304
0.137488
0.137662
0.137826
0.137981
0.138125
0.13826
0.138386
0.138503
0.13861
0.138709
0.138799
0.138881
0.138954
0.13902
0.139077
0.139126
0.139168
0.139203
0.13923