# vtk DataFile Version 3.0
LBM Fluid Grid
ASCII
DATASET STRUCTURED_POINTS
DIMENSIONS 400 150 1
ORIGIN 0 0 0
SPACING 1 1 1
POINT_DATA 60000
SCALARS VelocityMagnitude double 1
LOOKUP_TABLE default
0.1
0.100012
0.100026
0.100043
0.100061
0.100082
0.100105
0.100129
0.100156
0.100186
0.100218
0.100254
0.100294
0.100337
0.100385
0.100438
0.100495
0.100558
0.100626
0.100699
0.100778
0.100862
0.100952
0.101047
0.101147
0.101253
0.101363
0.101479
0.1016
0.101725
0.101856
0.101991
0.102132
0.102277
0.102429
0.102585
0.102748
0.102917
0.103092
0.103273
0.103462
0.103657
0.10386
0.104071
0.104289
0.104515
0.10475
0.104993
0.105244
0.105504
0.105772
0.106049
0.106335
0.106629
0.106932
0.107244
0.107564
0.107893
0.10823
0.108576
0.108931
0.109294
0.109665
0.110045
0.110433
0.11083
0.111234
0.111647
0.112068
0.112497
0.112933
0.113377
0.113829
0.114287
0.114752
0.115224
0.115702
0.116185
0.116674
0.117167
0.117665
0.118167
0.118672
0.11918
0.11969
0.120202
0.120715
0.121229
0.121742
0.122255
0.122767
0.123276
0.123784
0.124288
0.124789
0.125286
0.125779
0.126266
0.126748
0.127224
0.127693
0.128155
0.12861
0.129058
0.129497
0.129928
0.13035
0.130763
0.131166
0.13156
0.131945
0.132319
0.132682
0.133036
0.133378
0.13371
0.134031
0.134342
0.134641
0.134929
0.135206
0.135473
0.135728
0.135972
0.136206
0.136428
0.13664
0.136842
0.137033
0.137213
0.137384
0.137545
0.137695
0.137836
0.137968
0.138091
0.138204
0.138309
0.138405
0.138493
0.138572
0.138644
0.138707
0.138764
0.138812
0.138854
0.138889
0.138917
0.138939
0.138954
0.138963
0.138966
0.138963
0.138955
0.138942
0.138923
0.138899
0.13887
0.138837
0.138799
0.138756
0.13871
0.138659
0.138605
0.138546
0.138485
0.13842
0.138351
0.13828
0.138205
0.138128
0.138048
0.137966
0.137881
0.137794
0.137705
0.137614
0.137521
0.137426
0.13733
0.137233
0.137133
0.137033
0.136931
0.136829
0.136725
0.13662
0.136515
0.136408
0.136302
0.136194
0.136086
0.135977
0.135868
0.135759
0.135649
0.135539
0.135429
0.135318
0.135208
0.135098
0.134987
0.134877
0.134767
0.134657
0.134547
0.134437
0.134328
0.134219
0.13411
0.134002
0.133895
0.133787
0.133681
0.133575
0.133469
0.133364
0.13326
0.133156
0.133053
0.132951
0.13285
0.132749
0.132649
0.132549
0.132451
0.132353
0.132256
0.132159
0.132064
0.131969
0.131875
0.131782
0.13169
0.131598
0.131507
0.131417
0.131328
0.13124
0.131153
0.131066
0.13098
0.130895
0.130811
0.130728
0.130645
0.130563
0.130483
0.130403
0.130323
0.130245
0.130168
0.130091
0.130015
0.12994
0.129866
0.129793
0.12972
0.129648
0.129577
0.129507
0.129438
0.129369
0.129301
0.129234
0.129168
0.129102
0.129037
0.128973
0.128909
0.128846
0.128784
0.128723
0.128662
0.128602
0.128543
0.128484
0.128426
0.128369
0.128312
0.128256
0.1282
0.128145
0.128091
0.128037
0.127984
0.127932
0.12788
0.127829
0.127779
0.127729
0.127679
0.12763
0.127582
0.127534
0.127487
0.12744
0.127394
0.127348
0.127303
0.127259
0.127215
0.127171
0.127128
0.127085
0.127043
0.127001
0.12696
0.12692
0.126879
0.12684
0.1268
0.126761
0.126723
0.126685
0.126648
0.126611
0.126574
0.126538
0.126502
0.126467
0.126432
0.126398
0.126364
0.12633
0.126297
0.126265
0.126232
0.126201
0.126169
0.126138
0.126108
0.126078
0.126048
0.126019
0.12599
0.125962
0.125934
0.125906
0.125879
0.125853
0.125827
0.125801
0.125776
0.125751
0.125726
0.125702
0.125679
0.125656
0.125633
0.125611
0.12559
0.125569
0.125548
0.125528
0.125508
0.125489
0.125471
0.125453
0.125435
0.125418
0.125402
0.125386
0.12537
0.125355
0.125341
0.125327
0.125314
0.125301
0.125289
0.125278
0.125267
0.125256
0.125246
0.125237
0.125228
0.12522
0.125213
0.125206
0.125199
0.125193
0.125188
0.125183
0.125179
0.125175
0.125171
0.125168
0.125166
0.125163
0.125162
0.12516
0.125159
0.125158
0.125157
0.125156
0.125156
0.125155
0.125155
0.125154
0.125154
0.1
0.100012
0.100026
0.100043
0.100061
0.100082
0.100105
0.100129
0.100156
0.100186
0.100219
0.100254
0.100294
0.100337
0.100385
0.100438
0.100495
0.100558
0.100626
0.1007
0.100778
0.100863
0.100952
0.101048
0.101148
0.101253
0.101364
0.10148
0.1016
0.101726
0.101857
0.101992
0.102133
0.102279
0.10243
0.102587
0.102749
0.102918
0.103093
0.103275
0.103463
0.103659
0.103862
0.104072
0.104291
0.104517
0.104752
0.104995
0.105246
0.105506
0.105774
0.106051
0.106337
0.106631
0.106934
0.107246
0.107566
0.107895
0.108232
0.108578
0.108933
0.109296
0.109667
0.110047
0.110435
0.110831
0.111236
0.111649
0.112069
0.112498
0.112934
0.113378
0.113829
0.114288
0.114752
0.115224
0.115701
0.116185
0.116673
0.117166
0.117664
0.118165
0.11867
0.119178
0.119688
0.1202
0.120712
0.121226
0.121739
0.122251
0.122763
0.123272
0.12378
0.124284
0.124785
0.125281
0.125773
0.126261
0.126742
0.127218
0.127687
0.128149
0.128604
0.129051
0.12949
0.129921
0.130343
0.130756
0.131159
0.131553
0.131937
0.132311
0.132675
0.133028
0.133371
0.133703
0.134024
0.134334
0.134633
0.134922
0.135199
0.135465
0.135721
0.135965
0.136198
0.136421
0.136633
0.136835
0.137026
0.137207
0.137377
0.137538
0.137689
0.13783
0.137962
0.138084
0.138198
0.138303
0.138399
0.138487
0.138566
0.138638
0.138702
0.138758
0.138807
0.138849
0.138884
0.138912
0.138934
0.138949
0.138958
0.138961
0.138959
0.138951
0.138937
0.138918
0.138895
0.138866
0.138833
0.138795
0.138752
0.138706
0.138655
0.138601
0.138543
0.138481
0.138416
0.138348
0.138276
0.138202
0.138125
0.138045
0.137963
0.137878
0.137791
0.137702
0.137611
0.137518
0.137424
0.137328
0.13723
0.137131
0.137031
0.136929
0.136826
0.136723
0.136618
0.136513
0.136406
0.136299
0.136192
0.136084
0.135975
0.135866
0.135757
0.135647
0.135537
0.135427
0.135317
0.135206
0.135096
0.134985
0.134875
0.134765
0.134655
0.134545
0.134436
0.134326
0.134217
0.134109
0.134001
0.133893
0.133786
0.133679
0.133573
0.133468
0.133363
0.133259
0.133155
0.133052
0.13295
0.132848
0.132748
0.132647
0.132548
0.13245
0.132352
0.132255
0.132158
0.132063
0.131968
0.131874
0.131781
0.131689
0.131597
0.131506
0.131416
0.131327
0.131239
0.131152
0.131065
0.130979
0.130894
0.13081
0.130727
0.130644
0.130563
0.130482
0.130402
0.130323
0.130244
0.130167
0.13009
0.130014
0.129939
0.129865
0.129792
0.129719
0.129648
0.129577
0.129507
0.129437
0.129369
0.129301
0.129234
0.129167
0.129101
0.129037
0.128972
0.128909
0.128846
0.128784
0.128723
0.128662
0.128602
0.128542
0.128484
0.128426
0.128368
0.128311
0.128255
0.1282
0.128145
0.128091
0.128037
0.127984
0.127932
0.12788
0.127829
0.127779
0.127729
0.127679
0.12763
0.127582
0.127534
0.127487
0.12744
0.127394
0.127349
0.127304
0.127259
0.127215
0.127171
0.127128
0.127086
0.127044
0.127002
0.126961
0.12692
0.12688
0.12684
0.126801
0.126762
0.126724
0.126686
0.126648
0.126611
0.126575
0.126539
0.126503
0.126468
0.126433
0.126399
0.126365
0.126331
0.126298
0.126266
0.126234
0.126202
0.126171
0.12614
0.126109
0.126079
0.12605
0.12602
0.125992
0.125963
0.125935
0.125908
0.125881
0.125854
0.125828
0.125803
0.125777
0.125753
0.125728
0.125704
0.125681
0.125658
0.125636
0.125614
0.125592
0.125571
0.12555
0.12553
0.125511
0.125492
0.125473
0.125455
0.125438
0.125421
0.125404
0.125388
0.125373
0.125358
0.125344
0.12533
0.125317
0.125304
0.125292
0.125281
0.12527
0.125259
0.125249
0.12524
0.125231
0.125223
0.125216
0.125209
0.125202
0.125197
0.125191
0.125186
0.125182
0.125178
0.125175
0.125172
0.125169
0.125167
0.125165
0.125164
0.125163
0.125162
0.125161
0.12516
0.12516
0.125159
0.125158
0.125158
0.125158
0.1
0.100012
0.100026
0.100043
0.100061
0.100082
0.100105
0.100129
0.100156
0.100186
0.100218
0.100254
0.100294
0.100337
0.100385
0.100438
0.100495
0.100558
0.100626
0.100699
0.100778
0.100862
0.100952
0.101047
0.101147
0.101253
0.101363
0.101479
0.1016
0.101725
0.101856
0.101991
0.102132
0.102277
0.102429
0.102585
0.102748
0.102917
0.103092
0.103273
0.103462
0.103657
0.10386
0.104071
0.104289
0.104515
0.10475
0.104993
0.105244
0.105504
0.105772
0.106049
0.106335
0.106629
0.106932
0.107244
0.107564
0.107893
0.10823
0.108576
0.108931
0.109294
0.109665
0.110045
0.110433
0.11083
0.111234
0.111647
0.112068
0.112497
0.112933
0.113377
0.113829
0.114287
0.114752
0.115224
0.115702
0.116185
0.116674
0.117167
0.117665
0.118167
0.118672
0.11918
0.11969
0.120202
0.120715
0.121229
0.121742
0.122255
0.122767
0.123276
0.123784
0.124288
0.124789
0.125286
0.125779
0.126266
0.126748
0.127224
0.127693
0.128155
0.12861
0.129058
0.129497
0.129928
0.13035
0.130763
0.131166
0.13156
0.131945
0.132319
0.132682
0.133036
0.133378
0.13371
0.134031
0.134342
0.134641
0.134929
0.135206
0.135473
0.135728
0.135972
0.136206
0.136428
0.13664
0.136842
0.137033
0.137213
0.137384
0.137545
0.137695
0.137837
0.137968
0.138091
0.138204
0.138309
0.138405
0.138493
0.138572
0.138644
0.138707
0.138764
0.138812
0.138854
0.138889
0.138917
0.138939
0.138954
0.138963
0.138966
0.138963
0.138955
0.138942
0.138923
0.138899
0.13887
0.138837
0.138799
0.138756
0.13871
0.138659
0.138605
0.138546
0.138485
0.13842
0.138351
0.13828
0.138205
0.138128
0.138048
0.137966
0.137881
0.137794
0.137705
0.137614
0.137521
0.137426
0.13733
0.137233
0.137133
0.137033
0.136931
0.136829
0.136725
0.13662
0.136515
0.136408
0.136302
0.136194
0.136086
0.135977
0.135868
0.135759
0.135649
0.135539
0.135429
0.135318
0.135208
0.135098
0.134987
0.134877
0.134767
0.134657
0.134547
0.134437
0.134328
0.134219
0.13411
0.134002
0.133895
0.133787
0.133681
0.133575
0.133469
0.133364
0.13326
0.133156
0.133053
0.132951
0.13285
0.132749
0.132649
0.132549
0.132451
0.132353
0.132256
0.132159
0.132064
0.131969
0.131875
0.131782
0.13169
0.131598
0.131507
0.131417
0.131328
0.13124
0.131153
0.131066
0.13098
0.130895
0.130811
0.130728
0.130645
0.130563
0.130483
0.130403
0.130323
0.130245
0.130168
0.130091
0.130015
0.12994
0.129866
0.129793
0.12972
0.129648
0.129577
0.129507
0.129438
0.129369
0.129301
0.129234
0.129168
0.129102
0.129037
0.128973
0.128909
0.128846
0.128784
0.128723
0.128662
0.128602
0.128543
0.128484
0.128426
0.128369
0.128312
0.128256
0.1282
0.128145
0.128091
0.128037
0.127985
0.127932
0.12788
0.127829
0.127779
0.127729
0.127679
0.12763
0.127582
0.127534
0.127487
0.12744
0.127394
0.127348
0.127303
0.127259
0.127215
0.127171
0.127128
0.127085
0.127043
0.127001
0.12696
0.12692
0.126879
0.12684
0.1268
0.126761
0.126723
0.126685
0.126648
0.126611
0.126574
0.126538
0.126502
0.126467
0.126432
0.126398
0.126364
0.12633
0.126297
0.126265
0.126232
0.126201
0.126169
0.126138
0.126108
0.126078
0.126048
0.126019
0.12599
0.125962
0.125934
0.125906
0.125879
0.125853
0.125827
0.125801
0.125776
0.125751
0.125726
0.125702
0.125679
0.125656
0.125633
0.125611
0.12559
0.125569
0.125548
0.125528
0.125508
0.125489
0.125471
0.125453
0.125435
0.125418
0.125402
0.125386
0.12537
0.125355
0.125341
0.125327
0.125314
0.125301
0.125289
0.125278
0.125267
0.125256
0.125246
0.125237
0.125228
0.12522
0.125213
0.125206
0.125199
0.125193
0.125188
0.125183
0.125178
0.125175
0.125171
0.125168
0.125166
0.125163
0.125162
0.12516
0.125159
0.125158
0.125157
0.125156
0.125156
0.125155
0.125155
0.125154
0.125154
0.1
0.100012
0.100026
0.100043
0.100061
0.100082
0.100104
0.100129
0.100156
0.100186
0.100218
0.100254
0.100293
0.100337
0.100384
0.100437
0.100494
0.100557
0.100625
0.100698
0.100777
0.100861
0.10095
0.101045
0.101145
0.101251
0.101361
0.101477
0.101597
0.101722
0.101853
0.101988
0.102128
0.102274
0.102425
0.102582
0.102744
0.102912
0.103087
0.103269
0.103457
0.103652
0.103855
0.104065
0.104284
0.10451
0.104744
0.104987
0.105238
0.105498
0.105766
0.106043
0.106329
0.106623
0.106926
0.107238
0.107558
0.107887
0.108224
0.10857
0.108925
0.109288
0.10966
0.11004
0.110428
0.110825
0.11123
0.111643
0.112064
0.112494
0.112931
0.113375
0.113827
0.114286
0.114752
0.115224
0.115702
0.116186
0.116676
0.11717
0.117668
0.118171
0.118677
0.119186
0.119697
0.120209
0.120723
0.121237
0.121752
0.122265
0.122778
0.123288
0.123797
0.124302
0.124804
0.125301
0.125794
0.126283
0.126765
0.127241
0.127711
0.128174
0.12863
0.129078
0.129517
0.129949
0.130371
0.130784
0.131188
0.131582
0.131967
0.132341
0.132705
0.133058
0.133401
0.133733
0.134054
0.134364
0.134663
0.134952
0.135229
0.135495
0.13575
0.135994
0.136227
0.13645
0.136662
0.136863
0.137054
0.137234
0.137404
0.137565
0.137715
0.137856
0.137987
0.13811
0.138223
0.138327
0.138423
0.13851
0.138589
0.138661
0.138724
0.13878
0.138829
0.13887
0.138905
0.138932
0.138954
0.138969
0.138977
0.13898
0.138977
0.138969
0.138955
0.138936
0.138912
0.138883
0.138849
0.138811
0.138768
0.138721
0.13867
0.138616
0.138557
0.138495
0.13843
0.138361
0.13829
0.138215
0.138137
0.138057
0.137975
0.13789
0.137803
0.137714
0.137622
0.137529
0.137434
0.137338
0.13724
0.137141
0.13704
0.136939
0.136836
0.136732
0.136627
0.136521
0.136415
0.136308
0.1362
0.136092
0.135983
0.135874
0.135764
0.135655
0.135545
0.135434
0.135324
0.135213
0.135103
0.134992
0.134882
0.134772
0.134662
0.134552
0.134442
0.134333
0.134224
0.134115
0.134007
0.133899
0.133792
0.133685
0.133579
0.133473
0.133368
0.133264
0.13316
0.133057
0.132955
0.132853
0.132753
0.132652
0.132553
0.132454
0.132356
0.132259
0.132163
0.132067
0.131973
0.131879
0.131785
0.131693
0.131601
0.131511
0.131421
0.131331
0.131243
0.131155
0.131069
0.130983
0.130898
0.130814
0.13073
0.130648
0.130566
0.130485
0.130405
0.130326
0.130248
0.13017
0.130093
0.130017
0.129942
0.129868
0.129795
0.129722
0.12965
0.129579
0.129509
0.12944
0.129371
0.129303
0.129236
0.129169
0.129104
0.129039
0.128974
0.128911
0.128848
0.128786
0.128724
0.128663
0.128603
0.128544
0.128485
0.128427
0.128369
0.128312
0.128256
0.128201
0.128146
0.128092
0.128038
0.127985
0.127932
0.127881
0.127829
0.127779
0.127728
0.127679
0.12763
0.127582
0.127534
0.127486
0.12744
0.127393
0.127348
0.127303
0.127258
0.127214
0.12717
0.127127
0.127084
0.127042
0.127
0.126959
0.126918
0.126878
0.126838
0.126798
0.126759
0.126721
0.126683
0.126645
0.126608
0.126572
0.126535
0.126499
0.126464
0.126429
0.126395
0.126361
0.126327
0.126294
0.126261
0.126229
0.126197
0.126166
0.126134
0.126104
0.126074
0.126044
0.126015
0.125986
0.125957
0.125929
0.125902
0.125874
0.125848
0.125821
0.125796
0.12577
0.125745
0.125721
0.125697
0.125673
0.12565
0.125627
0.125605
0.125583
0.125562
0.125542
0.125521
0.125502
0.125482
0.125464
0.125445
0.125428
0.125411
0.125394
0.125378
0.125362
0.125347
0.125333
0.125319
0.125305
0.125293
0.12528
0.125269
0.125258
0.125247
0.125237
0.125228
0.125219
0.125211
0.125203
0.125196
0.125189
0.125183
0.125178
0.125173
0.125168
0.125164
0.125161
0.125157
0.125155
0.125153
0.125151
0.125149
0.125148
0.125147
0.125146
0.125145
0.125145
0.125144
0.125143
0.125143
0.125143
0.1
0.100012
0.100026
0.100043
0.100061
0.100082
0.100104
0.100129
0.100155
0.100185
0.100217
0.100253
0.100292
0.100336
0.100383
0.100436
0.100493
0.100555
0.100623
0.100696
0.100775
0.100858
0.100948
0.101042
0.101142
0.101247
0.101358
0.101473
0.101593
0.101718
0.101848
0.101983
0.102123
0.102268
0.102419
0.102575
0.102737
0.102906
0.10308
0.103261
0.103449
0.103644
0.103847
0.104057
0.104275
0.104501
0.104735
0.104978
0.105229
0.105488
0.105756
0.106033
0.106319
0.106613
0.106916
0.107227
0.107548
0.107877
0.108214
0.10856
0.108915
0.109279
0.10965
0.110031
0.11042
0.110817
0.111223
0.111636
0.112058
0.112488
0.112926
0.113371
0.113824
0.114284
0.11475
0.115224
0.115703
0.116188
0.116679
0.117174
0.117674
0.118178
0.118685
0.119195
0.119707
0.120221
0.120736
0.121252
0.121768
0.122283
0.122797
0.123308
0.123818
0.124325
0.124828
0.125326
0.125821
0.12631
0.126794
0.127271
0.127742
0.128206
0.128662
0.129111
0.129551
0.129983
0.130406
0.13082
0.131224
0.131619
0.132004
0.132378
0.132742
0.133096
0.133439
0.133771
0.134092
0.134402
0.134701
0.134989
0.135266
0.135532
0.135787
0.136031
0.136264
0.136486
0.136697
0.136898
0.137088
0.137268
0.137438
0.137598
0.137748
0.137889
0.138019
0.138141
0.138254
0.138358
0.138453
0.13854
0.138618
0.138689
0.138752
0.138807
0.138856
0.138896
0.13893
0.138958
0.138979
0.138993
0.139001
0.139004
0.139
0.138991
0.138977
0.138957
0.138933
0.138903
0.138869
0.138831
0.138787
0.13874
0.138689
0.138634
0.138575
0.138513
0.138447
0.138378
0.138306
0.138231
0.138153
0.138073
0.13799
0.137905
0.137817
0.137728
0.137636
0.137543
0.137448
0.137351
0.137253
0.137153
0.137053
0.136951
0.136848
0.136743
0.136638
0.136533
0.136426
0.136319
0.136211
0.136102
0.135993
0.135884
0.135774
0.135664
0.135554
0.135443
0.135333
0.135222
0.135112
0.135001
0.13489
0.13478
0.13467
0.13456
0.13445
0.13434
0.134231
0.134122
0.134014
0.133906
0.133799
0.133692
0.133586
0.13348
0.133375
0.133271
0.133167
0.133064
0.132961
0.13286
0.132759
0.132658
0.132559
0.13246
0.132362
0.132265
0.132169
0.132073
0.131978
0.131884
0.131791
0.131698
0.131606
0.131516
0.131426
0.131336
0.131248
0.13116
0.131073
0.130987
0.130902
0.130818
0.130735
0.130652
0.13057
0.130489
0.130409
0.13033
0.130251
0.130174
0.130097
0.130021
0.129946
0.129872
0.129798
0.129725
0.129654
0.129582
0.129512
0.129443
0.129374
0.129306
0.129238
0.129172
0.129106
0.129041
0.128976
0.128913
0.12885
0.128788
0.128726
0.128665
0.128605
0.128545
0.128486
0.128428
0.12837
0.128314
0.128257
0.128202
0.128147
0.128092
0.128038
0.127985
0.127933
0.127881
0.127829
0.127778
0.127728
0.127679
0.127629
0.127581
0.127533
0.127486
0.127439
0.127392
0.127346
0.127301
0.127256
0.127212
0.127168
0.127125
0.127082
0.127039
0.126997
0.126956
0.126915
0.126875
0.126835
0.126795
0.126756
0.126717
0.126679
0.126641
0.126604
0.126567
0.126531
0.126495
0.126459
0.126424
0.12639
0.126355
0.126322
0.126288
0.126255
0.126223
0.126191
0.126159
0.126128
0.126097
0.126067
0.126037
0.126007
0.125978
0.125949
0.125921
0.125893
0.125866
0.125839
0.125813
0.125787
0.125761
0.125736
0.125711
0.125687
0.125663
0.12564
0.125617
0.125594
0.125573
0.125551
0.12553
0.12551
0.12549
0.12547
0.125451
0.125433
0.125415
0.125398
0.125381
0.125365
0.125349
0.125334
0.125319
0.125305
0.125291
0.125278
0.125266
0.125254
0.125242
0.125232
0.125221
0.125212
0.125203
0.125194
0.125186
0.125179
0.125172
0.125166
0.12516
0.125155
0.125151
0.125146
0.125143
0.12514
0.125137
0.125134
0.125132
0.125131
0.125129
0.125128
0.125127
0.125126
0.125126
0.125125
0.125124
0.125123
0.125123
0.1
0.100012
0.100026
0.100042
0.100061
0.100081
0.100104
0.100128
0.100155
0.100184
0.100216
0.100252
0.100291
0.100334
0.100382
0.100434
0.100491
0.100553
0.100621
0.100693
0.100771
0.100855
0.100944
0.101038
0.101138
0.101243
0.101352
0.101467
0.101587
0.101711
0.101841
0.101976
0.102115
0.10226
0.10241
0.102566
0.102728
0.102896
0.10307
0.103251
0.103438
0.103633
0.103835
0.104045
0.104262
0.104488
0.104722
0.104964
0.105215
0.105474
0.105742
0.106019
0.106305
0.106599
0.106901
0.107213
0.107533
0.107862
0.1082
0.108547
0.108902
0.109265
0.109638
0.110019
0.110408
0.110806
0.111212
0.111627
0.112049
0.11248
0.112919
0.113365
0.113819
0.114281
0.114749
0.115223
0.115704
0.116191
0.116683
0.11718
0.117682
0.118187
0.118696
0.119208
0.119722
0.120238
0.120755
0.121273
0.12179
0.122307
0.122823
0.123337
0.123848
0.124356
0.124861
0.125362
0.125858
0.126348
0.126833
0.127312
0.127785
0.12825
0.128707
0.129157
0.129599
0.130032
0.130455
0.13087
0.131275
0.13167
0.132055
0.13243
0.132795
0.133148
0.133492
0.133824
0.134145
0.134455
0.134754
0.135042
0.135318
0.135584
0.135839
0.136082
0.136315
0.136536
0.136747
0.136947
0.137137
0.137317
0.137486
0.137645
0.137794
0.137934
0.138064
0.138185
0.138297
0.1384
0.138495
0.138581
0.138659
0.138729
0.138791
0.138846
0.138893
0.138933
0.138967
0.138993
0.139013
0.139027
0.139035
0.139036
0.139032
0.139023
0.139008
0.138988
0.138962
0.138932
0.138898
0.138858
0.138815
0.138767
0.138715
0.138659
0.1386
0.138537
0.138471
0.138401
0.138329
0.138253
0.138175
0.138094
0.138011
0.137925
0.137837
0.137747
0.137656
0.137562
0.137466
0.137369
0.137271
0.137171
0.13707
0.136967
0.136864
0.13676
0.136654
0.136548
0.136441
0.136333
0.136225
0.136117
0.136007
0.135898
0.135788
0.135677
0.135567
0.135456
0.135345
0.135235
0.135124
0.135013
0.134902
0.134791
0.134681
0.134571
0.134461
0.134351
0.134242
0.134133
0.134024
0.133916
0.133809
0.133702
0.133596
0.13349
0.133384
0.13328
0.133176
0.133073
0.13297
0.132868
0.132767
0.132667
0.132567
0.132468
0.13237
0.132273
0.132176
0.132081
0.131986
0.131891
0.131798
0.131705
0.131614
0.131523
0.131432
0.131343
0.131254
0.131167
0.13108
0.130994
0.130908
0.130824
0.13074
0.130658
0.130576
0.130495
0.130415
0.130335
0.130257
0.130179
0.130102
0.130026
0.129951
0.129876
0.129803
0.12973
0.129658
0.129587
0.129516
0.129446
0.129377
0.129309
0.129242
0.129175
0.129109
0.129044
0.128979
0.128916
0.128852
0.12879
0.128728
0.128667
0.128607
0.128547
0.128488
0.12843
0.128372
0.128315
0.128258
0.128202
0.128147
0.128093
0.128039
0.127985
0.127933
0.12788
0.127829
0.127778
0.127727
0.127678
0.127628
0.12758
0.127531
0.127484
0.127437
0.12739
0.127344
0.127298
0.127253
0.127209
0.127165
0.127121
0.127078
0.127036
0.126993
0.126952
0.126911
0.12687
0.12683
0.12679
0.126751
0.126712
0.126673
0.126635
0.126598
0.126561
0.126524
0.126488
0.126452
0.126417
0.126382
0.126347
0.126313
0.12628
0.126246
0.126214
0.126181
0.126149
0.126118
0.126087
0.126056
0.126026
0.125996
0.125967
0.125938
0.12591
0.125881
0.125854
0.125827
0.1258
0.125773
0.125748
0.125722
0.125697
0.125673
0.125649
0.125625
0.125602
0.125579
0.125557
0.125535
0.125514
0.125493
0.125473
0.125453
0.125434
0.125415
0.125397
0.125379
0.125362
0.125345
0.125329
0.125314
0.125299
0.125284
0.125271
0.125257
0.125244
0.125232
0.125221
0.12521
0.125199
0.125189
0.12518
0.125171
0.125163
0.125155
0.125148
0.125142
0.125136
0.12513
0.125126
0.125121
0.125117
0.125114
0.125111
0.125108
0.125106
0.125104
0.125103
0.125101
0.1251
0.125099
0.125099
0.125098
0.125097
0.125096
0.125096
0.1
0.100012
0.100026
0.100042
0.10006
0.100081
0.100103
0.100127
0.100154
0.100183
0.100215
0.100251
0.10029
0.100333
0.10038
0.100432
0.100488
0.10055
0.100617
0.10069
0.100768
0.100851
0.100939
0.101033
0.101132
0.101236
0.101346
0.10146
0.101579
0.101703
0.101832
0.101966
0.102105
0.10225
0.102399
0.102555
0.102716
0.102883
0.103057
0.103237
0.103424
0.103618
0.10382
0.104029
0.104247
0.104472
0.104705
0.104947
0.105198
0.105457
0.105724
0.106001
0.106286
0.10658
0.106883
0.107194
0.107515
0.107844
0.108182
0.108529
0.108884
0.109248
0.109621
0.110002
0.110393
0.110791
0.111199
0.111614
0.112038
0.11247
0.11291
0.113358
0.113814
0.114276
0.114746
0.115223
0.115705
0.116194
0.116688
0.117188
0.117691
0.118199
0.118711
0.119225
0.119741
0.12026
0.120779
0.121299
0.121819
0.122339
0.122857
0.123373
0.123887
0.124397
0.124904
0.125407
0.125905
0.126398
0.126885
0.127366
0.12784
0.128307
0.128766
0.129217
0.12966
0.130094
0.130519
0.130934
0.13134
0.131736
0.132122
0.132497
0.132862
0.133216
0.13356
0.133892
0.134213
0.134523
0.134822
0.135109
0.135386
0.135651
0.135905
0.136148
0.13638
0.136601
0.136811
0.137011
0.1372
0.137378
0.137547
0.137705
0.137854
0.137993
0.138122
0.138242
0.138353
0.138455
0.138549
0.138634
0.138711
0.13878
0.138841
0.138895
0.138942
0.138981
0.139013
0.139039
0.139058
0.139071
0.139078
0.139079
0.139074
0.139063
0.139047
0.139026
0.139
0.138969
0.138934
0.138894
0.13885
0.138801
0.138748
0.138692
0.138632
0.138568
0.138502
0.138431
0.138358
0.138282
0.138203
0.138122
0.138038
0.137952
0.137863
0.137773
0.13768
0.137586
0.13749
0.137393
0.137294
0.137193
0.137092
0.136989
0.136885
0.13678
0.136674
0.136568
0.13646
0.136352
0.136244
0.136135
0.136025
0.135915
0.135805
0.135694
0.135584
0.135473
0.135361
0.13525
0.135139
0.135028
0.134917
0.134806
0.134695
0.134585
0.134475
0.134365
0.134255
0.134146
0.134037
0.133929
0.133822
0.133714
0.133608
0.133502
0.133396
0.133292
0.133187
0.133084
0.132981
0.132879
0.132778
0.132677
0.132578
0.132479
0.13238
0.132283
0.132186
0.13209
0.131995
0.131901
0.131807
0.131714
0.131622
0.131531
0.131441
0.131351
0.131263
0.131175
0.131088
0.131001
0.130916
0.130832
0.130748
0.130665
0.130583
0.130502
0.130421
0.130342
0.130263
0.130185
0.130108
0.130032
0.129956
0.129882
0.129808
0.129735
0.129663
0.129591
0.129521
0.129451
0.129382
0.129313
0.129246
0.129179
0.129113
0.129047
0.128983
0.128919
0.128855
0.128793
0.128731
0.128669
0.128609
0.128549
0.12849
0.128431
0.128373
0.128316
0.128259
0.128203
0.128148
0.128093
0.128039
0.127985
0.127932
0.12788
0.127828
0.127777
0.127726
0.127676
0.127626
0.127577
0.127529
0.127481
0.127434
0.127387
0.12734
0.127295
0.127249
0.127204
0.12716
0.127116
0.127073
0.12703
0.126988
0.126946
0.126904
0.126863
0.126823
0.126783
0.126743
0.126704
0.126665
0.126627
0.126589
0.126552
0.126515
0.126478
0.126442
0.126406
0.126371
0.126336
0.126302
0.126268
0.126234
0.126201
0.126169
0.126136
0.126105
0.126073
0.126042
0.126012
0.125982
0.125952
0.125923
0.125894
0.125865
0.125837
0.12581
0.125783
0.125756
0.12573
0.125704
0.125678
0.125653
0.125629
0.125605
0.125581
0.125558
0.125536
0.125514
0.125492
0.125471
0.12545
0.12543
0.125411
0.125391
0.125373
0.125355
0.125337
0.12532
0.125304
0.125288
0.125272
0.125258
0.125243
0.12523
0.125216
0.125204
0.125192
0.12518
0.12517
0.125159
0.12515
0.12514
0.125132
0.125124
0.125117
0.12511
0.125103
0.125098
0.125093
0.125088
0.125084
0.12508
0.125077
0.125074
0.125071
0.125069
0.125068
0.125066
0.125065
0.125064
0.125063
0.125062
0.125061
0.125061
0.125061
0.1
0.100012
0.100026
0.100042
0.10006
0.10008
0.100102
0.100126
0.100153
0.100182
0.100214
0.100249
0.100288
0.10033
0.100377
0.100429
0.100485
0.100547
0.100613
0.100685
0.100763
0.100846
0.100934
0.101027
0.101125
0.101229
0.101338
0.101451
0.10157
0.101693
0.101822
0.101955
0.102093
0.102237
0.102386
0.102541
0.102701
0.102868
0.103041
0.10322
0.103407
0.1036
0.103801
0.10401
0.104227
0.104452
0.104685
0.104926
0.105176
0.105435
0.105702
0.105978
0.106263
0.106557
0.10686
0.107171
0.107492
0.107821
0.108159
0.108506
0.108862
0.109227
0.1096
0.109983
0.110374
0.110773
0.111182
0.111599
0.112024
0.112458
0.112899
0.113349
0.113806
0.114271
0.114743
0.115222
0.115707
0.116198
0.116695
0.117197
0.117703
0.118214
0.118728
0.119245
0.119765
0.120286
0.120809
0.121332
0.121855
0.122377
0.122898
0.123417
0.123934
0.124447
0.124957
0.125463
0.125963
0.126459
0.126948
0.127431
0.127907
0.128376
0.128837
0.12929
0.129735
0.13017
0.130597
0.131013
0.13142
0.131817
0.132204
0.13258
0.132945
0.133299
0.133643
0.133975
0.134296
0.134606
0.134905
0.135192
0.135468
0.135733
0.135986
0.136229
0.13646
0.13668
0.136889
0.137088
0.137276
0.137454
0.137621
0.137779
0.137926
0.138064
0.138192
0.138311
0.138421
0.138522
0.138615
0.138699
0.138775
0.138843
0.138903
0.138955
0.139001
0.139039
0.13907
0.139095
0.139113
0.139125
0.13913
0.13913
0.139124
0.139113
0.139096
0.139074
0.139047
0.139015
0.138978
0.138937
0.138892
0.138843
0.138789
0.138732
0.138671
0.138607
0.138539
0.138468
0.138394
0.138317
0.138238
0.138155
0.138071
0.137984
0.137895
0.137804
0.137711
0.137616
0.137519
0.137421
0.137321
0.13722
0.137118
0.137015
0.13691
0.136805
0.136699
0.136592
0.136484
0.136376
0.136267
0.136157
0.136047
0.135937
0.135826
0.135715
0.135604
0.135492
0.135381
0.135269
0.135158
0.135046
0.134935
0.134824
0.134713
0.134602
0.134491
0.134381
0.134271
0.134162
0.134053
0.133945
0.133837
0.133729
0.133622
0.133516
0.13341
0.133305
0.133201
0.133097
0.132995
0.132892
0.132791
0.13269
0.13259
0.132491
0.132392
0.132295
0.132198
0.132101
0.132006
0.131912
0.131818
0.131725
0.131633
0.131541
0.131451
0.131361
0.131272
0.131184
0.131097
0.13101
0.130925
0.13084
0.130756
0.130673
0.130591
0.130509
0.130429
0.130349
0.13027
0.130192
0.130115
0.130038
0.129963
0.129888
0.129814
0.129741
0.129668
0.129597
0.129526
0.129456
0.129386
0.129318
0.12925
0.129183
0.129116
0.129051
0.128986
0.128922
0.128858
0.128795
0.128733
0.128671
0.12861
0.12855
0.128491
0.128432
0.128374
0.128316
0.128259
0.128203
0.128147
0.128092
0.128038
0.127984
0.12793
0.127878
0.127826
0.127774
0.127723
0.127673
0.127623
0.127574
0.127525
0.127477
0.127429
0.127382
0.127335
0.127289
0.127243
0.127198
0.127153
0.127109
0.127066
0.127022
0.12698
0.126937
0.126895
0.126854
0.126813
0.126773
0.126733
0.126693
0.126654
0.126615
0.126577
0.126539
0.126502
0.126465
0.126429
0.126393
0.126357
0.126322
0.126287
0.126253
0.126219
0.126185
0.126152
0.126119
0.126087
0.126055
0.126024
0.125993
0.125962
0.125932
0.125903
0.125873
0.125844
0.125816
0.125788
0.12576
0.125733
0.125706
0.12568
0.125654
0.125629
0.125604
0.12558
0.125555
0.125532
0.125509
0.125486
0.125464
0.125443
0.125421
0.125401
0.125381
0.125361
0.125342
0.125323
0.125305
0.125288
0.125271
0.125255
0.125239
0.125223
0.125209
0.125194
0.125181
0.125168
0.125155
0.125143
0.125132
0.125121
0.125111
0.125102
0.125093
0.125084
0.125076
0.125069
0.125063
0.125056
0.125051
0.125046
0.125041
0.125037
0.125034
0.12503
0.125028
0.125025
0.125023
0.125022
0.12502
0.125019
0.125018
0.125017
0.125016
0.125015
0.125015
0.1
0.100012
0.100025
0.100041
0.100059
0.100079
0.100101
0.100125
0.100152
0.10018
0.100212
0.100247
0.100285
0.100328
0.100374
0.100426
0.100482
0.100543
0.100609
0.10068
0.100757
0.100839
0.100927
0.101019
0.101117
0.10122
0.101328
0.101441
0.101559
0.101681
0.101809
0.101941
0.102079
0.102222
0.10237
0.102524
0.102684
0.10285
0.103022
0.1032
0.103386
0.103579
0.10378
0.103988
0.104204
0.104428
0.10466
0.104901
0.105151
0.105409
0.105676
0.105952
0.106236
0.10653
0.106833
0.107144
0.107465
0.107794
0.108132
0.10848
0.108836
0.109201
0.109576
0.109959
0.110351
0.110752
0.111162
0.11158
0.112007
0.112442
0.112886
0.113338
0.113797
0.114265
0.114739
0.11522
0.115708
0.116202
0.116702
0.117207
0.117717
0.118231
0.118749
0.119269
0.119792
0.120317
0.120843
0.12137
0.121896
0.122422
0.122947
0.12347
0.12399
0.124506
0.12502
0.125528
0.126032
0.12653
0.127023
0.127508
0.127987
0.128459
0.128922
0.129377
0.129823
0.130261
0.130689
0.131107
0.131515
0.131913
0.1323
0.132677
0.133043
0.133398
0.133742
0.134074
0.134395
0.134705
0.135003
0.13529
0.135565
0.13583
0.136082
0.136324
0.136554
0.136774
0.136982
0.13718
0.137367
0.137543
0.137709
0.137865
0.138012
0.138148
0.138275
0.138393
0.138502
0.138601
0.138692
0.138775
0.13885
0.138916
0.138975
0.139026
0.13907
0.139107
0.139137
0.13916
0.139177
0.139188
0.139192
0.13919
0.139183
0.139171
0.139152