# vtk DataFile Version 3.0
LBM Fluid Grid
ASCII
DATASET STRUCTURED_POINTS
DIMENSIONS 400 150 1
ORIGIN 0 0 0
SPACING 1 1 1
POINT_DATA 60000
SCALARS VelocityMagnitude double 1
LOOKUP_TABLE default
0.1
0.100006
0.100014
0.100027
0.100042
0.100062
0.100084
0.100109
0.100138
0.10017
0.100205
0.100243
0.100285
0.10033
0.100379
0.100432
0.100489
0.100551
0.100617
0.100688
0.100763
0.100843
0.100929
0.101019
0.101115
0.101216
0.101323
0.101434
0.101552
0.101674
0.101803
0.101937
0.102076
0.102222
0.102373
0.102531
0.102694
0.102864
0.10304
0.103223
0.103412
0.103609
0.103813
0.104024
0.104242
0.104469
0.104703
0.104945
0.105196
0.105455
0.105722
0.105998
0.106282
0.106575
0.106877
0.107188
0.107508
0.107837
0.108174
0.10852
0.108875
0.109239
0.109612
0.109993
0.110383
0.110781
0.111187
0.111602
0.112025
0.112455
0.112893
0.113339
0.113791
0.114251
0.114717
0.11519
0.115668
0.116152
0.116641
0.117135
0.117634
0.118136
0.118641
0.119149
0.11966
0.120172
0.120685
0.121199
0.121714
0.122227
0.12274
0.12325
0.123759
0.124265
0.124767
0.125265
0.125759
0.126248
0.126731
0.127208
0.127679
0.128142
0.128599
0.129047
0.129487
0.129919
0.130342
0.130755
0.131159
0.131554
0.131938
0.132312
0.132676
0.133029
0.133372
0.133704
0.134025
0.134335
0.134634
0.134922
0.135199
0.135465
0.135721
0.135965
0.136198
0.136421
0.136633
0.136835
0.137026
0.137207
0.137378
0.137539
0.13769
0.137832
0.137964
0.138087
0.1382
0.138305
0.138402
0.138489
0.138569
0.13864
0.138704
0.13876
0.138809
0.13885
0.138884
0.138912
0.138933
0.138948
0.138956
0.138959
0.138956
0.138947
0.138933
0.138914
0.138889
0.13886
0.138826
0.138788
0.138745
0.138698
0.138647
0.138593
0.138534
0.138473
0.138407
0.138339
0.138268
0.138193
0.138116
0.138037
0.137954
0.13787
0.137783
0.137694
0.137603
0.13751
0.137416
0.137319
0.137222
0.137123
0.137022
0.136921
0.136818
0.136714
0.136609
0.136504
0.136398
0.136291
0.136183
0.136075
0.135966
0.135857
0.135748
0.135639
0.135529
0.135419
0.135309
0.135199
0.135089
0.134979
0.134869
0.134759
0.13465
0.13454
0.134431
0.134323
0.134214
0.134106
0.133999
0.133891
0.133785
0.133679
0.133573
0.133468
0.133363
0.13326
0.133156
0.133054
0.132952
0.132851
0.13275
0.13265
0.132551
0.132453
0.132355
0.132259
0.132163
0.132067
0.131973
0.131879
0.131786
0.131694
0.131603
0.131513
0.131423
0.131334
0.131246
0.131159
0.131073
0.130987
0.130903
0.130819
0.130736
0.130653
0.130572
0.130491
0.130411
0.130332
0.130254
0.130177
0.1301
0.130024
0.129949
0.129875
0.129802
0.129729
0.129657
0.129586
0.129516
0.129446
0.129377
0.129309
0.129242
0.129175
0.129109
0.129044
0.12898
0.128916
0.128853
0.12879
0.128729
0.128668
0.128607
0.128548
0.128489
0.12843
0.128372
0.128315
0.128259
0.128203
0.128148
0.128093
0.128039
0.127986
0.127933
0.127881
0.127829
0.127778
0.127728
0.127678
0.127628
0.12758
0.127531
0.127484
0.127437
0.12739
0.127344
0.127298
0.127253
0.127209
0.127165
0.127121
0.127078
0.127036
0.126994
0.126952
0.126911
0.12687
0.12683
0.126791
0.126751
0.126713
0.126674
0.126637
0.126599
0.126562
0.126526
0.12649
0.126454
0.126419
0.126385
0.12635
0.126317
0.126283
0.12625
0.126218
0.126186
0.126154
0.126123
0.126093
0.126062
0.126033
0.126003
0.125974
0.125946
0.125918
0.12589
0.125863
0.125837
0.12581
0.125785
0.125759
0.125734
0.12571
0.125686
0.125663
0.12564
0.125617
0.125595
0.125574
0.125553
0.125532
0.125512
0.125492
0.125473
0.125455
0.125437
0.125419
0.125403
0.125386
0.12537
0.125355
0.12534
0.125326
0.125313
0.1253
0.125287
0.125275
0.125264
0.125253
0.125243
0.125233
0.125224
0.125216
0.125208
0.125201
0.125194
0.125188
0.125182
0.125177
0.125172
0.125168
0.125165
0.125162
0.125159
0.125157
0.125155
0.125153
0.125152
0.125151
0.125151
0.12515
0.12515
0.12515
0.125149
0.125149
0.125149
0.125149
0.1
0.100006
0.100014
0.100027
0.100042
0.100061
0.100084
0.100109
0.100138
0.100169
0.100204
0.100243
0.100284
0.10033
0.100379
0.100432
0.100489
0.100551
0.100617
0.100687
0.100763
0.100843
0.100928
0.101019
0.101115
0.101216
0.101322
0.101434
0.101551
0.101674
0.101802
0.101936
0.102075
0.102221
0.102372
0.102529
0.102693
0.102862
0.103039
0.103221
0.103411
0.103607
0.103811
0.104022
0.104241
0.104467
0.104701
0.104943
0.105194
0.105453
0.10572
0.105996
0.10628
0.106573
0.106875
0.107186
0.107506
0.107835
0.108172
0.108518
0.108873
0.109237
0.10961
0.109991
0.110381
0.110779
0.111186
0.111601
0.112023
0.112454
0.112892
0.113338
0.113791
0.114251
0.114717
0.11519
0.115668
0.116153
0.116642
0.117136
0.117635
0.118137
0.118643
0.119151
0.119662
0.120174
0.120688
0.121202
0.121717
0.122231
0.122743
0.123255
0.123763
0.124269
0.124772
0.12527
0.125764
0.126253
0.126737
0.127214
0.127685
0.128149
0.128605
0.129054
0.129494
0.129926
0.130349
0.130762
0.131167
0.131561
0.131945
0.13232
0.132683
0.133037
0.133379
0.133711
0.134032
0.134342
0.134641
0.134929
0.135207
0.135473
0.135728
0.135972
0.136206
0.136428
0.136641
0.136842
0.137033
0.137214
0.137385
0.137546
0.137697
0.137838
0.13797
0.138093
0.138207
0.138311
0.138408
0.138495
0.138575
0.138646
0.13871
0.138765
0.138814
0.138855
0.13889
0.138917
0.138938
0.138953
0.138961
0.138964
0.13896
0.138952
0.138937
0.138918
0.138893
0.138864
0.13883
0.138792
0.138749
0.138702
0.138651
0.138596
0.138538
0.138476
0.138411
0.138342
0.138271
0.138197
0.138119
0.13804
0.137957
0.137873
0.137786
0.137697
0.137606
0.137513
0.137418
0.137322
0.137224
0.137125
0.137025
0.136923
0.13682
0.136716
0.136612
0.136506
0.1364
0.136293
0.136185
0.136077
0.135968
0.135859
0.13575
0.13564
0.135531
0.135421
0.135311
0.135201
0.135091
0.134981
0.134871
0.134761
0.134651
0.134542
0.134433
0.134324
0.134216
0.134108
0.134
0.133893
0.133786
0.13368
0.133574
0.133469
0.133365
0.133261
0.133158
0.133055
0.132953
0.132852
0.132751
0.132652
0.132552
0.132454
0.132357
0.13226
0.132164
0.132068
0.131974
0.13188
0.131788
0.131695
0.131604
0.131514
0.131424
0.131335
0.131247
0.13116
0.131074
0.130988
0.130903
0.13082
0.130736
0.130654
0.130573
0.130492
0.130412
0.130333
0.130255
0.130177
0.130101
0.130025
0.12995
0.129876
0.129802
0.12973
0.129658
0.129587
0.129516
0.129447
0.129378
0.12931
0.129242
0.129176
0.12911
0.129045
0.12898
0.128916
0.128853
0.128791
0.128729
0.128668
0.128608
0.128548
0.128489
0.128431
0.128373
0.128316
0.128259
0.128203
0.128148
0.128093
0.128039
0.127986
0.127933
0.127881
0.127829
0.127778
0.127728
0.127678
0.127628
0.12758
0.127531
0.127484
0.127436
0.12739
0.127344
0.127298
0.127253
0.127208
0.127164
0.127121
0.127078
0.127035
0.126993
0.126952
0.12691
0.12687
0.12683
0.12679
0.126751
0.126712
0.126674
0.126636
0.126598
0.126562
0.126525
0.126489
0.126453
0.126418
0.126384
0.126349
0.126316
0.126282
0.126249
0.126217
0.126185
0.126153
0.126122
0.126091
0.126061
0.126031
0.126002
0.125973
0.125944
0.125916
0.125889
0.125862
0.125835
0.125809
0.125783
0.125757
0.125733
0.125708
0.125684
0.125661
0.125638
0.125615
0.125593
0.125571
0.12555
0.12553
0.12551
0.12549
0.125471
0.125453
0.125435
0.125417
0.1254
0.125384
0.125368
0.125353
0.125338
0.125324
0.12531
0.125297
0.125284
0.125272
0.125261
0.12525
0.12524
0.12523
0.125221
0.125213
0.125205
0.125198
0.125191
0.125185
0.125179
0.125174
0.125169
0.125165
0.125161
0.125158
0.125156
0.125153
0.125151
0.12515
0.125149
0.125148
0.125147
0.125147
0.125146
0.125146
0.125146
0.125145
0.125145
0.125145
0.1
0.100006
0.100014
0.100027
0.100042
0.100061
0.100084
0.100109
0.100137
0.100169
0.100204
0.100242
0.100284
0.100329
0.100378
0.100431
0.100488
0.10055
0.100616
0.100686
0.100761
0.100842
0.100927
0.101017
0.101113
0.101214
0.10132
0.101431
0.101548
0.101671
0.101799
0.101933
0.102072
0.102217
0.102369
0.102526
0.102689
0.102858
0.103034
0.103217
0.103406
0.103603
0.103806
0.104017
0.104236
0.104462
0.104696
0.104938
0.105188
0.105447
0.105714
0.10599
0.106274
0.106567
0.106869
0.10718
0.1075
0.107829
0.108166
0.108513
0.108868
0.109232
0.109605
0.109986
0.110376
0.110775
0.111182
0.111597
0.11202
0.112451
0.11289
0.113336
0.113789
0.11425
0.114717
0.11519
0.115669
0.116154
0.116644
0.117139
0.117638
0.118141
0.118648
0.119157
0.119668
0.120182
0.120696
0.121211
0.121727
0.122241
0.122755
0.123267
0.123776
0.124283
0.124786
0.125286
0.12578
0.12627
0.126754
0.127232
0.127703
0.128168
0.128625
0.129074
0.129515
0.129947
0.13037
0.130784
0.131188
0.131583
0.131968
0.132342
0.132706
0.133059
0.133402
0.133734
0.134055
0.134365
0.134664
0.134952
0.135229
0.135495
0.13575
0.135994
0.136228
0.13645
0.136662
0.136863
0.137054
0.137235
0.137406
0.137566
0.137717
0.137858
0.13799
0.138112
0.138225
0.13833
0.138426
0.138513
0.138592
0.138663
0.138726
0.138782
0.13883
0.138871
0.138905
0.138933
0.138953
0.138968
0.138976
0.138978
0.138974
0.138965
0.138951
0.138931
0.138906
0.138877
0.138842
0.138804
0.138761
0.138714
0.138662
0.138607
0.138549
0.138487
0.138421
0.138353
0.138281
0.138206
0.138129
0.138049
0.137966
0.137882
0.137794
0.137705
0.137614
0.137521
0.137426
0.13733
0.137232
0.137133
0.137032
0.13693
0.136827
0.136723
0.136619
0.136513
0.136406
0.136299
0.136191
0.136083
0.135974
0.135865
0.135756
0.135646
0.135536
0.135426
0.135316
0.135206
0.135096
0.134986
0.134876
0.134766
0.134656
0.134547
0.134438
0.134329
0.13422
0.134112
0.134005
0.133897
0.133791
0.133684
0.133579
0.133473
0.133369
0.133265
0.133162
0.133059
0.132957
0.132856
0.132755
0.132655
0.132556
0.132458
0.13236
0.132263
0.132167
0.132072
0.131977
0.131884
0.131791
0.131699
0.131607
0.131517
0.131427
0.131338
0.13125
0.131163
0.131077
0.130991
0.130906
0.130822
0.130739
0.130657
0.130575
0.130495
0.130415
0.130336
0.130257
0.13018
0.130103
0.130027
0.129952
0.129878
0.129804
0.129732
0.12966
0.129589
0.129518
0.129448
0.12938
0.129311
0.129244
0.129177
0.129111
0.129046
0.128981
0.128918
0.128855
0.128792
0.12873
0.128669
0.128609
0.128549
0.12849
0.128431
0.128374
0.128316
0.12826
0.128204
0.128149
0.128094
0.12804
0.127986
0.127933
0.127881
0.127829
0.127778
0.127728
0.127678
0.127628
0.127579
0.127531
0.127483
0.127436
0.127389
0.127343
0.127297
0.127252
0.127208
0.127163
0.12712
0.127077
0.127034
0.126992
0.12695
0.126909
0.126868
0.126828
0.126788
0.126749
0.12671
0.126672
0.126634
0.126596
0.126559
0.126523
0.126486
0.126451
0.126415
0.126381
0.126346
0.126312
0.126279
0.126246
0.126213
0.126181
0.12615
0.126118
0.126087
0.126057
0.126027
0.125998
0.125969
0.12594
0.125912
0.125884
0.125857
0.12583
0.125803
0.125778
0.125752
0.125727
0.125702
0.125678
0.125655
0.125632
0.125609
0.125587
0.125565
0.125544
0.125523
0.125503
0.125483
0.125464
0.125445
0.125427
0.12541
0.125393
0.125376
0.12536
0.125345
0.12533
0.125315
0.125302
0.125288
0.125276
0.125264
0.125252
0.125241
0.125231
0.125221
0.125212
0.125203
0.125195
0.125188
0.125181
0.125175
0.125169
0.125164
0.125159
0.125155
0.125151
0.125148
0.125145
0.125143
0.125141
0.125139
0.125138
0.125137
0.125136
0.125136
0.125135
0.125135
0.125135
0.125134
0.125134
0.125134
0.1
0.100006
0.100014
0.100027
0.100042
0.100061
0.100083
0.100109
0.100137
0.100169
0.100203
0.100242
0.100283
0.100328
0.100377
0.10043
0.100487
0.100548
0.100614
0.100684
0.100759
0.100839
0.100924
0.101014
0.10111
0.10121
0.101316
0.101428
0.101544
0.101667
0.101794
0.101928
0.102067
0.102212
0.102363
0.102519
0.102682
0.102852
0.103027
0.10321
0.103399
0.103595
0.103798
0.104009
0.104227
0.104453
0.104687
0.104929
0.105179
0.105437
0.105704
0.10598
0.106264
0.106557
0.106859
0.10717
0.10749
0.107819
0.108156
0.108503
0.108858
0.109223
0.109596
0.109978
0.110368
0.110767
0.111175
0.11159
0.112014
0.112446
0.112885
0.113332
0.113786
0.114248
0.114716
0.11519
0.11567
0.116156
0.116648
0.117144
0.117644
0.118148
0.118656
0.119167
0.119679
0.120194
0.12071
0.121227
0.121743
0.122259
0.122774
0.123287
0.123798
0.124306
0.124811
0.125311
0.125807
0.126298
0.126783
0.127262
0.127734
0.1282
0.128657
0.129107
0.129549
0.129982
0.130405
0.13082
0.131225
0.13162
0.132005
0.132379
0.132744
0.133097
0.13344
0.133772
0.134093
0.134403
0.134702
0.13499
0.135267
0.135532
0.135787
0.136031
0.136264
0.136486
0.136698
0.136899
0.137089
0.13727
0.13744
0.1376
0.13775
0.137891
0.138022
0.138144
0.138257
0.13836
0.138456
0.138543
0.138621
0.138692
0.138754
0.13881
0.138857
0.138898
0.138931
0.138958
0.138978
0.138992
0.139
0.139001
0.138997
0.138988
0.138973
0.138953
0.138927
0.138897
0.138863
0.138824
0.13878
0.138733
0.138681
0.138626
0.138567
0.138504
0.138438
0.138369
0.138297
0.138222
0.138145
0.138064
0.137982
0.137896
0.137809
0.137719
0.137628
0.137535
0.13744
0.137343
0.137245
0.137145
0.137044
0.136942
0.136839
0.136735
0.13663
0.136524
0.136417
0.13631
0.136202
0.136094
0.135985
0.135875
0.135766
0.135656
0.135546
0.135436
0.135325
0.135215
0.135105
0.134994
0.134884
0.134774
0.134664
0.134555
0.134446
0.134337
0.134228
0.13412
0.134012
0.133905
0.133798
0.133691
0.133586
0.13348
0.133376
0.133272
0.133168
0.133065
0.132963
0.132862
0.132761
0.132661
0.132562
0.132464
0.132366
0.132269
0.132173
0.132078
0.131983
0.131889
0.131796
0.131704
0.131613
0.131522
0.131432
0.131343
0.131255
0.131168
0.131081
0.130996
0.130911
0.130827
0.130744
0.130661
0.13058
0.130499
0.130419
0.13034
0.130261
0.130184
0.130107
0.130031
0.129956
0.129881
0.129808
0.129735
0.129663
0.129592
0.129521
0.129451
0.129382
0.129314
0.129247
0.12918
0.129114
0.129048
0.128984
0.12892
0.128857
0.128794
0.128732
0.128671
0.12861
0.128551
0.128491
0.128433
0.128375
0.128318
0.128261
0.128205
0.128149
0.128095
0.12804
0.127987
0.127934
0.127881
0.127829
0.127778
0.127727
0.127677
0.127628
0.127579
0.12753
0.127482
0.127435
0.127388
0.127342
0.127296
0.127251
0.127206
0.127161
0.127118
0.127074
0.127032
0.126989
0.126947
0.126906
0.126865
0.126825
0.126785
0.126745
0.126706
0.126668
0.12663
0.126592
0.126555
0.126518
0.126482
0.126446
0.12641
0.126376
0.126341
0.126307
0.126273
0.12624
0.126207
0.126175
0.126143
0.126112
0.126081
0.12605
0.12602
0.12599
0.125961
0.125932
0.125904
0.125876
0.125848
0.125821
0.125795
0.125769
0.125743
0.125718
0.125693
0.125669
0.125645
0.125621
0.125599
0.125576
0.125554
0.125533
0.125512
0.125492
0.125472
0.125452
0.125433
0.125415
0.125397
0.12538
0.125363
0.125347
0.125331
0.125316
0.125302
0.125288
0.125274
0.125261
0.125249
0.125237
0.125226
0.125216
0.125206
0.125196
0.125187
0.125179
0.125172
0.125164
0.125158
0.125152
0.125147
0.125142
0.125137
0.125133
0.12513
0.125127
0.125125
0.125122
0.125121
0.125119
0.125118
0.125117
0.125117
0.125116
0.125116
0.125116
0.125115
0.125115
0.125115
0.1
0.100006
0.100014
0.100026
0.100042
0.100061
0.100083
0.100108
0.100136
0.100168
0.100203
0.10024
0.100282
0.100327
0.100376
0.100428
0.100485
0.100546
0.100611
0.100681
0.100756
0.100836
0.100921
0.10101
0.101105
0.101206
0.101311
0.101422
0.101539
0.10166
0.101788
0.101921
0.10206
0.102204
0.102354
0.102511
0.102673
0.102842
0.103017
0.103199
0.103388
0.103584
0.103787
0.103997
0.104215
0.10444
0.104674
0.104916
0.105165
0.105424
0.105691
0.105966
0.10625
0.106543
0.106845
0.107156
0.107476
0.107805
0.108143
0.10849
0.108845
0.10921
0.109583
0.109966
0.110357
0.110756
0.111165
0.111581
0.112006
0.112438
0.112879
0.113327
0.113782
0.114245
0.114714
0.11519
0.115672
0.116159
0.116652
0.11715
0.117652
0.118158
0.118668
0.11918
0.119695
0.120211
0.120729
0.121248
0.121766
0.122284
0.122801
0.123316
0.123829
0.124338
0.124845
0.125347
0.125844
0.126337
0.126823
0.127304
0.127777
0.128244
0.128703
0.129154
0.129596
0.13003
0.130455
0.13087
0.131276
0.131671
0.132057
0.132432
0.132796
0.13315
0.133493
0.133825
0.134146
0.134456
0.134755
0.135043
0.135319
0.135585
0.135839
0.136083
0.136315
0.136537
0.136748
0.136948
0.137138
0.137318
0.137487
0.137647
0.137796
0.137936
0.138067
0.138188
0.1383
0.138403
0.138498
0.138584
0.138662
0.138732
0.138794
0.138848
0.138895
0.138935
0.138968
0.138994
0.139013
0.139026
0.139033
0.139034
0.13903
0.139019
0.139004
0.138983
0.138957
0.138927
0.138891
0.138852
0.138807
0.138759
0.138707
0.138651
0.138592
0.138529
0.138462
0.138393
0.13832
0.138245
0.138167
0.138086
0.138003
0.137917
0.137829
0.137739
0.137647
0.137554
0.137458
0.137361
0.137263
0.137163
0.137062
0.136959
0.136856
0.136751
0.136646
0.136539
0.136432
0.136325
0.136217
0.136108
0.135999
0.135889
0.135779
0.135669
0.135559
0.135448
0.135338
0.135227
0.135117
0.135006
0.134896
0.134786
0.134676
0.134566
0.134457
0.134347
0.134239
0.13413
0.134022
0.133915
0.133808
0.133701
0.133595
0.13349
0.133385
0.133281
0.133177
0.133074
0.132972
0.132871
0.13277
0.13267
0.13257
0.132472
0.132374
0.132277
0.132181
0.132085
0.131991
0.131897
0.131804
0.131711
0.13162
0.131529
0.131439
0.13135
0.131262
0.131174
0.131088
0.131002
0.130917
0.130833
0.13075
0.130667
0.130585
0.130504
0.130424
0.130345
0.130267
0.130189
0.130112
0.130036
0.129961
0.129886
0.129812
0.129739
0.129667
0.129596
0.129525
0.129455
0.129386
0.129318
0.12925
0.129183
0.129117
0.129052
0.128987
0.128923
0.128859
0.128797
0.128735
0.128673
0.128613
0.128552
0.128493
0.128434
0.128376
0.128319
0.128262
0.128206
0.12815
0.128095
0.128041
0.127987
0.127934
0.127881
0.127829
0.127778
0.127727
0.127676
0.127627
0.127577
0.127529
0.127481
0.127433
0.127386
0.127339
0.127293
0.127248
0.127203
0.127158
0.127114
0.127071
0.127028
0.126985
0.126943
0.126902
0.126861
0.12682
0.12678
0.12674
0.126701
0.126662
0.126624
0.126586
0.126548
0.126511
0.126475
0.126439
0.126403
0.126368
0.126333
0.126299
0.126265
0.126231
0.126198
0.126166
0.126134
0.126102
0.126071
0.12604
0.126009
0.125979
0.12595
0.125921
0.125892
0.125864
0.125836
0.125809
0.125782
0.125756
0.12573
0.125704
0.125679
0.125654
0.12563
0.125607
0.125584
0.125561
0.125539
0.125517
0.125496
0.125475
0.125455
0.125435
0.125416
0.125397
0.125379
0.125362
0.125344
0.125328
0.125312
0.125297
0.125282
0.125267
0.125254
0.12524
0.125228
0.125216
0.125204
0.125194
0.125183
0.125174
0.125165
0.125156
0.125148
0.125141
0.125134
0.125128
0.125122
0.125117
0.125112
0.125108
0.125105
0.125101
0.125099
0.125096
0.125095
0.125093
0.125092
0.125091
0.12509
0.12509
0.125089
0.125089
0.125088
0.125088
0.125088
0.1
0.100006
0.100014
0.100026
0.100042
0.100061
0.100082
0.100108
0.100136
0.100167
0.100201
0.100239
0.10028
0.100325
0.100373
0.100426
0.100482
0.100543
0.100608
0.100678
0.100752
0.100832
0.100916
0.101005
0.1011
0.1012
0.101305
0.101415
0.101531
0.101652
0.101779
0.101912
0.10205
0.102194
0.102344
0.1025
0.102662
0.10283
0.103005
0.103186
0.103374
0.103569
0.103772
0.103982
0.104199
0.104424
0.104657
0.104899
0.105148
0.105406
0.105673
0.105948
0.106232
0.106525
0.106827
0.107138
0.107458
0.107787
0.108125
0.108472
0.108828
0.109193
0.109567
0.10995
0.110342
0.110742
0.111152
0.111569
0.111995
0.112429
0.112871
0.11332
0.113777
0.114241
0.114712
0.11519
0.115674
0.116163
0.116658
0.117158
0.117662
0.118171
0.118683
0.119197
0.119715
0.120234
0.120754
0.121275
0.121796
0.122316
0.122835
0.123353
0.123868
0.12438
0.124888
0.125393
0.125892
0.126387
0.126875
0.127358
0.127833
0.128301
0.128762
0.129214
0.129658
0.130093
0.130519
0.130935
0.131341
0.131738
0.132124
0.132499
0.132864
0.133218
0.133562
0.133894
0.134215
0.134525
0.134823
0.135111
0.135387
0.135652
0.135906
0.136149
0.136381
0.136602
0.136812
0.137012
0.137201
0.13738
0.137549
0.137707
0.137856
0.137995
0.138125
0.138245
0.138356
0.138458
0.138552
0.138637
0.138714
0.138783
0.138844
0.138898
0.138944
0.138982
0.139014
0.13904
0.139058
0.13907
0.139077
0.139077
0.139071
0.13906
0.139044
0.139022
0.138995
0.138964
0.138928
0.138887
0.138843
0.138794
0.138741
0.138684
0.138624
0.13856
0.138493
0.138423
0.13835
0.138274
0.138195
0.138114
0.13803
0.137944
0.137855
0.137765
0.137672
0.137578
0.137482
0.137385
0.137286
0.137185
0.137084
0.136981
0.136877
0.136772
0.136666
0.136559
0.136452
0.136344
0.136235
0.136126
0.136017
0.135907
0.135797
0.135686
0.135576
0.135465
0.135354
0.135243
0.135132
0.135022
0.134911
0.134801
0.13469
0.13458
0.134471
0.134361
0.134252
0.134144
0.134035
0.133928
0.13382
0.133714
0.133608
0.133502
0.133397
0.133293
0.133189
0.133086
0.132983
0.132882
0.132781
0.13268
0.132581
0.132482
0.132384
0.132287
0.132191
0.132095
0.132
0.131906
0.131813
0.13172
0.131629
0.131538
0.131448
0.131359
0.13127
0.131183
0.131096
0.13101
0.130925
0.13084
0.130757
0.130674
0.130592
0.130511
0.130431
0.130352
0.130273
0.130195
0.130118
0.130042
0.129966
0.129892
0.129818
0.129745
0.129672
0.129601
0.12953
0.12946
0.129391
0.129322
0.129254
0.129187
0.129121
0.129055
0.12899
0.128926
0.128862
0.128799
0.128737
0.128676
0.128615
0.128554
0.128495
0.128436
0.128378
0.12832
0.128263
0.128206
0.128151
0.128095
0.128041
0.127987
0.127933
0.12788
0.127828
0.127776
0.127725
0.127675
0.127625
0.127575
0.127526
0.127478
0.12743
0.127383
0.127336
0.12729
0.127244
0.127199
0.127154
0.12711
0.127066
0.127022
0.12698
0.126937
0.126895
0.126854
0.126813
0.126773
0.126733
0.126693
0.126654
0.126615
0.126577
0.126539
0.126502
0.126465
0.126429
0.126393
0.126357
0.126322
0.126288
0.126253
0.12622
0.126186
0.126153
0.126121
0.126089
0.126057
0.126026
0.125995
0.125965
0.125935
0.125905
0.125876
0.125848
0.12582
0.125792
0.125765
0.125738
0.125712
0.125686
0.12566
0.125635
0.125611
0.125587
0.125563
0.12554
0.125518
0.125496
0.125474
0.125453
0.125432
0.125412
0.125393
0.125374
0.125355
0.125337
0.12532
0.125303
0.125286
0.125271
0.125255
0.125241
0.125226
0.125213
0.1252
0.125188
0.125176
0.125165
0.125154
0.125144
0.125134
0.125126
0.125117
0.12511
0.125102
0.125096
0.12509
0.125084
0.125079
0.125075
0.125071
0.125068
0.125065
0.125062
0.12506
0.125058
0.125057
0.125056
0.125055
0.125054
0.125054
0.125053
0.125053
0.125052
0.125052
0.1
0.100006
0.100014
0.100026
0.100041
0.10006
0.100082
0.100107
0.100135
0.100166
0.1002
0.100238
0.100278
0.100323
0.100371
0.100423
0.100479
0.100539
0.100604
0.100673
0.100747
0.100826
0.10091
0.100999
0.101093
0.101192
0.101297
0.101407
0.101522
0.101643
0.101769
0.101901
0.102038
0.102182
0.102331
0.102486
0.102647
0.102815
0.102989
0.10317
0.103357
0.103552
0.103754
0.103963
0.10418
0.104404
0.104637
0.104878
0.105127
0.105385
0.105651
0.105926
0.10621
0.106503
0.106805
0.107116
0.107436
0.107765
0.108103
0.10845
0.108807
0.109173
0.109547
0.109931
0.110324
0.110725
0.111135
0.111554
0.111981
0.112417
0.11286
0.113312
0.11377
0.114237
0.11471
0.11519
0.115676
0.116168
0.116665
0.117168
0.117675
0.118186
0.118701
0.119218
0.119739
0.120261
0.120784
0.121308
0.121832
0.122355
0.122877
0.123398
0.123916
0.124431
0.124942
0.125449
0.125951
0.126448
0.126939
0.127424
0.127901
0.128371
0.128834
0.129288
0.129733
0.13017
0.130597
0.131014
0.131422
0.131819
0.132206
0.132582
0.132948
0.133302
0.133645
0.133978
0.134299
0.134608
0.134907
0.135194
0.13547
0.135734
0.135988
0.13623
0.136461
0.136681
0.136891
0.13709
0.137278
0.137456
0.137623
0.137781
0.137929
0.138067
0.138195
0.138314
0.138424
0.138526
0.138618
0.138702
0.138778
0.138846
0.138906
0.138958
0.139003
0.139041
0.139071
0.139095
0.139113
0.139124
0.139129
0.139128
0.139122
0.139109
0.139092
0.139069
0.139042
0.139009
0.138972
0.138931
0.138885
0.138835
0.138782
0.138724
0.138663
0.138599
0.138531
0.13846
0.138386
0.138309
0.138229
0.138147
0.138063
0.137976
0.137887
0.137796
0.137703
0.137608
0.137511
0.137413
0.137313
0.137212
0.13711
0.137007
0.136902
0.136797
0.136691
0.136583
0.136476
0.136367
0.136258
0.136149
0.136039
0.135928
0.135818
0.135707
0.135596
0.135485
0.135373
0.135262
0.135151
0.13504
0.134929
0.134818
0.134708
0.134597
0.134487
0.134378
0.134268
0.13416
0.134051
0.133943
0.133836
0.133729
0.133622
0.133516
0.133411
0.133307
0.133203
0.133099
0.132997
0.132895
0.132794
0.132693
0.132593
0.132494
0.132396
0.132299
0.132202
0.132106
0.132011
0.131917
0.131824
0.131731
0.131639
0.131548
0.131458
0.131368
0.13128
0.131192
0.131105
0.131019
0.130934
0.130849
0.130766
0.130683
0.130601
0.130519
0.130439
0.130359
0.13028
0.130202
0.130125
0.130049
0.129973
0.129898
0.129824
0.129751
0.129678
0.129606
0.129535
0.129465
0.129395
0.129327
0.129259
0.129191
0.129125
0.129059
0.128993
0.128929
0.128865
0.128802
0.128739
0.128678
0.128616
0.128556
0.128496
0.128437
0.128378
0.12832
0.128263
0.128206
0.12815
0.128095
0.12804
0.127986
0.127932
0.127879
0.127826
0.127774
0.127723
0.127672
0.127621
0.127572
0.127522
0.127474
0.127426
0.127378
0.127331
0.127284
0.127238
0.127192
0.127147
0.127103
0.127059
0.127015
0.126972
0.126929
0.126887
0.126845
0.126804
0.126763
0.126722
0.126683
0.126643
0.126604
0.126565
0.126527
0.12649
0.126452
0.126416
0.126379
0.126343
0.126308
0.126273
0.126238
0.126204
0.12617
0.126137
0.126104
0.126071
0.126039
0.126008
0.125977
0.125946
0.125915
0.125886
0.125856
0.125827
0.125799
0.12577
0.125743
0.125715
0.125689
0.125662
0.125636
0.125611
0.125586
0.125562
0.125538
0.125514
0.125491
0.125468
0.125446
0.125425
0.125404
0.125383
0.125363
0.125344
0.125325
0.125306
0.125288
0.125271
0.125254
0.125238
0.125222
0.125207
0.125192
0.125178
0.125165
0.125152
0.125139
0.125128
0.125117
0.125106
0.125096
0.125087
0.125078
0.12507
0.125062
0.125056
0.125049
0.125043
0.125038
0.125033
0.125029
0.125025
0.125022
0.125019
0.125017
0.125015
0.125013
0.125012
0.125011
0.12501
0.125009
0.125008
0.125008
0.125007
0.125007
0.1
0.100005
0.100014
0.100026
0.100041
0.10006
0.100081
0.100106
0.100134
0.100164
0.100198
0.100236
0.100276
0.10032
0.100368
0.10042
0.100475
0.100535
0.100599
0.100668
0.100742
0.10082
0.100903
0.100992
0.101085
0.101184
0.101287
0.101397
0.101511
0.101631
0.101757
0.101888
0.102024
0.102167
0.102315
0.10247
0.10263
0.102797
0.10297
0.10315
0.103337
0.103531
0.103732
0.103941
0.104157
0.104381
0.104613
0.104853
0.105102
0.105359
0.105625
0.1059
0.106184
0.106476
0.106778
0.107089
0.107409
0.107738
0.108077
0.108425
0.108782
0.109148
0.109523
0.109908
0.110302
0.110704
0.111116
0.111536
0.111965
0.112402
0.112848
0.113301
0.113762
0.114231
0.114706
0.115189
0.115678
0.116173
0.116673
0.117179
0.117689
0.118204
0.118722
0.119243
0.119767
0.120292
0.120819
0.121347
0.121874
0.122401
0.122927
0.123451
0.123972
0.124491
0.125005
0.125515
0.126021
0.126521
0.127015
0.127502
0.127982
0.128455
0.128919
0.129375
0.129823
0.130261
0.13069
0.131109
0.131517
0.131916
0.132303
0.13268
0.133046
0.133401
0.133745
0.134077
0.134398
0.134707
0.135006
0.135292
0.135568
0.135832
0.136084
0.136326
0.136556
0.136775
0.136984
0.137182
0.137369
0.137545
0.137712
0.137868
0.138015
0.138151
0.138278
0.138396
0.138505
0.138605
0.138696
0.138779
0.138853
0.13892
0.138978
0.139029
0.139073
0.139109
0.139139
0.139161
0.139177
0.139187
0.139191
0.139189
0.139181
0.139168
0.139149
0.139125
0.139096
0.139063
0.139025
0.138982
0.138935
0.138885
0.13883
0.138771
0.138709
0.138644
0.138575
0.138503
0.138428
0.13835
0.13827
0.138187
0.138101
0.138014
0.137924
0.137832
0.137738
0.137642
0.137545
0.137446
0.137346
0.137244
0.137142
0.137037
0.136932
0.136826
0.136719
0.136612
0.136503
0.136394
0.136285
0.136175
0.136064
0.135953
0.135842
0.135731
0.135619
0.135508
0.135396
0.135285
0.135173
0.135061
0.13495
0.134839
0.134728
0.134617
0.134507
0.134397
0.134287
0.134178
0.134069
0.133961
0.133853
0.133746
0.133639
0.133533
0.133428
0.133323
0.133218
0.133115
0.133012
0.13291
0.132808
0.132708
0.132608
0.132508
0.13241
0.132312
0.132215
0.132119
0.132024
0.13193
0.131836
0.131743
0.131651
0.13156
0.131469
0.131379
0.131291
0.131203
0.131115
0.131029
0.130944
0.130859
0.130775
0.130692
0.130609
0.130528
0.130447
0.130367
0.130288
0.13021
0.130132
0.130056
0.12998
0.129905
0.12983
0.129757
0.129684
0.129612
0.12954
0.12947
0.1294
0.129331
0.129263
0.129195
0.129128
0.129062
0.128996
0.128932
0.128867
0.128804
0.128741
0.128679
0.128618
0.128557
0.128497
0.128437
0.128378
0.12832
0.128262
0.128205
0.128149
0.128093
0.128038
0.127983
0.127929
0.127875
0.127822
0.12777
0.127718
0.127667
0.127616
0.127566
0.127516
0.127467
0.127419
0.127371
0.127323
0.127276
0.12723
0.127184
0.127138
0.127093
0.127048
0.127004
0.126961
0.126918
0.126875
0.126833
0.126791
0.12675
0.126709
0.126669
0.126629
0.126589
0.12655
0.126512
0.126473
0.126436
0.126398
0.126361
0.126325
0.126289
0.126254
0.126218
0.126184
0.126149
0.126116
0.126082
0.126049
0.126017
0.125985
0.125953
0.125922
0.125891
0.12586
0.12583
0.125801
0.125772
0.125743
0.125715
0.125687
0.12566
0.125633
0.125606
0.12558
0.125555
0.12553
0.125505
0.125481
0.125458
0.125434
0.125412
0.12539
0.125368
0.125347
0.125326
0.125306
0.125287
0.125267
0.125249
0.125231
0.125214
0.125197
0.12518
0.125165
0.125149
0.125135
0.125121
0.125107
0.125095
0.125082
0.125071
0.12506
0.125049
0.125039
0.12503
0.125022
0.125013
0.125006
0.124999
0.124993
0.124987
0.124982
0.124977
0.124973
0.124969
0.124966
0.124963
0.124961
0.124959
0.124958
0.124956
0.124955
0.124954
0.124954
0.124953
0.124952
0.124952
0.1
0.100005
0.100014
0.100026
0.100041
0.100059
0.10008
0.100105
0.100132
0.100163
0.100196
0.100233
0.100274
0.100317
0.100365
0.100416
0.100471
0.10053
0.100594
0.100662
0.100735
0.100813
0.100895
0.100983
0.101076
0.101173
0.101277
0.101385
0.101499
0.101618
0.101742
0.101873
0.102008
0.10215
0.102297
0.102451
0.10261
0.102776
0.102949
0.103128
0.103314
0.103507
0.103707
0.103915
0.10413
0.104354
0.104585
0.104825
0.105073
0.10533
0.105595
0.105869
0.106153
0.106445
0.106747
0.107058
0.107378
0.107707
0.108046
0.108394
0.108752
0.109119
0.109496
0.109881
0.110276
0.11068
0.111093
0.111515
0.111946
0.112385
0.112833
0.113289
0.113752
0.114224
0.114702
0.115188
0.11568
0.116178
0.116682
0.117192
0.117706
0.118224
0.118746
0.119271
0.119799
0.120329
0.12086
0.121392
0.121923
0.122455
0.122984
0.123512
0.124038
0.12456
0.125079
0.125593
0.126101
0.126605
0.127102
0.127592
0.128075
0.128551
0.129018
0.129477
0.129926
0.130366
0.130797
0.131217
0.131627
0.132027
0.132416
0.132793
0.13316
0.133515
0.133859
0.134192
0.134512
0.134822
0.13512
0.135406
0.135681
0.135944
0.136196
0.136436
0.136666
0.136884
0.137091
0.137288
0.137473
0.137649
0.137814
0.137969
0.138114
0.138249
0.138374
0.138491
0.138598
0.138696
0.138786
0.138867
0.13894
0.139005
0.139062
0.139111
0.139153
0.139188
0.139216
0.139237
0.139252
0.13926
0.139262
0.139259
0.139249
0.139235
0.139215
0.139189