# vtk DataFile Version 3.0
LBM Fluid Grid
ASCII
DATASET STRUCTURED_POINTS
DIMENSIONS 400 150 1
ORIGIN 0 0 0
SPACING 1 1 1
POINT_DATA 60000
SCALARS VelocityMagnitude double 1
LOOKUP_TABLE default
0.1
0.100007
0.100016
0.100025
0.100036
0.100048
0.100062
0.100079
0.100099
0.100122
0.100149
0.100181
0.100217
0.100259
0.100306
0.10036
0.100418
0.100483
0.100554
0.10063
0.100712
0.100799
0.100891
0.100988
0.10109
0.101196
0.101307
0.101422
0.101542
0.101666
0.101795
0.101928
0.102066
0.10221
0.102359
0.102513
0.102674
0.102841
0.103015
0.103196
0.103385
0.103581
0.103785
0.103997
0.104217
0.104445
0.104682
0.104927
0.105181
0.105443
0.105714
0.105992
0.10628
0.106576
0.10688
0.107192
0.107513
0.107842
0.10818
0.108526
0.10888
0.109243
0.109614
0.109994
0.110382
0.110779
0.111184
0.111597
0.112018
0.112448
0.112885
0.11333
0.113783
0.114242
0.114709
0.115182
0.115661
0.116146
0.116636
0.117131
0.11763
0.118133
0.118639
0.119148
0.119659
0.120171
0.120684
0.121198
0.121712
0.122224
0.122736
0.123245
0.123753
0.124257
0.124757
0.125254
0.125746
0.126234
0.126715
0.127191
0.12766
0.128123
0.128578
0.129026
0.129466
0.129897
0.13032
0.130733
0.131138
0.131532
0.131917
0.132292
0.132656
0.13301
0.133353
0.133686
0.134007
0.134318
0.134617
0.134906
0.135183
0.135449
0.135704
0.135949
0.136182
0.136405
0.136616
0.136817
0.137008
0.137189
0.137359
0.137519
0.13767
0.137811
0.137942
0.138065
0.138178
0.138283
0.138379
0.138467
0.138547
0.138619
0.138683
0.138739
0.138788
0.13883
0.138866
0.138894
0.138916
0.138932
0.138941
0.138944
0.138942
0.138934
0.13892
0.138901
0.138878
0.138849
0.138815
0.138777
0.138735
0.138688
0.138637
0.138582
0.138524
0.138462
0.138396
0.138328
0.138256
0.138182
0.138104
0.138024
0.137942
0.137857
0.13777
0.137681
0.13759
0.137497
0.137402
0.137306
0.137209
0.13711
0.137009
0.136908
0.136805
0.136701
0.136597
0.136491
0.136385
0.136278
0.136171
0.136062
0.135954
0.135845
0.135735
0.135625
0.135515
0.135405
0.135294
0.135184
0.135073
0.134962
0.134852
0.134741
0.134631
0.134521
0.134411
0.134302
0.134193
0.134084
0.133976
0.133868
0.133761
0.133654
0.133548
0.133443
0.133338
0.133234
0.13313
0.133027
0.132925
0.132823
0.132723
0.132623
0.132523
0.132425
0.132327
0.13223
0.132133
0.132038
0.131943
0.131849
0.131756
0.131664
0.131572
0.131481
0.131391
0.131302
0.131214
0.131126
0.13104
0.130954
0.130869
0.130785
0.130702
0.130619
0.130538
0.130457
0.130377
0.130298
0.13022
0.130143
0.130067
0.129991
0.129916
0.129842
0.129769
0.129697
0.129625
0.129555
0.129485
0.129415
0.129347
0.129279
0.129212
0.129146
0.129081
0.129016
0.128952
0.128889
0.128826
0.128764
0.128703
0.128643
0.128583
0.128524
0.128465
0.128407
0.12835
0.128294
0.128238
0.128183
0.128128
0.128074
0.128021
0.127968
0.127916
0.127865
0.127814
0.127764
0.127714
0.127665
0.127616
0.127568
0.127521
0.127474
0.127428
0.127382
0.127336
0.127292
0.127247
0.127203
0.12716
0.127117
0.127075
0.127033
0.126991
0.12695
0.12691
0.12687
0.12683
0.126791
0.126752
0.126714
0.126676
0.126639
0.126602
0.126566
0.126529
0.126494
0.126459
0.126424
0.12639
0.126356
0.126322
0.126289
0.126257
0.126224
0.126193
0.126161
0.12613
0.1261
0.12607
0.12604
0.126011
0.125982
0.125953
0.125925
0.125898
0.12587
0.125844
0.125817
0.125791
0.125766
0.125741
0.125716
0.125692
0.125669
0.125645
0.125623
0.1256
0.125579
0.125557
0.125537
0.125516
0.125496
0.125477
0.125458
0.12544
0.125422
0.125405
0.125388
0.125372
0.125356
0.125341
0.125326
0.125312
0.125299
0.125286
0.125274
0.125262
0.125251
0.12524
0.12523
0.125221
0.125212
0.125203
0.125195
0.125188
0.125182
0.125176
0.12517
0.125165
0.12516
0.125156
0.125153
0.12515
0.125147
0.125145
0.125143
0.125141
0.12514
0.125139
0.125138
0.125137
0.125137
0.125136
0.125136
0.125135
0.125135
0.1
0.100007
0.100016
0.100025
0.100036
0.100048
0.100062
0.100079
0.100099
0.100122
0.100149
0.100181
0.100217
0.100259
0.100306
0.100359
0.100418
0.100483
0.100553
0.10063
0.100711
0.100798
0.10089
0.100987
0.101089
0.101195
0.101306
0.101421
0.101541
0.101665
0.101794
0.101927
0.102065
0.102208
0.102357
0.102512
0.102673
0.10284
0.103014
0.103195
0.103383
0.103579
0.103783
0.103995
0.104215
0.104444
0.10468
0.104925
0.105179
0.105441
0.105712
0.105991
0.106278
0.106574
0.106878
0.10719
0.107511
0.10784
0.108178
0.108524
0.108878
0.109241
0.109613
0.109992
0.110381
0.110777
0.111182
0.111596
0.112017
0.112447
0.112884
0.11333
0.113782
0.114242
0.114709
0.115182
0.115661
0.116146
0.116637
0.117132
0.117631
0.118134
0.118641
0.11915
0.119661
0.120173
0.120687
0.121201
0.121715
0.122228
0.12274
0.123249
0.123757
0.124261
0.124762
0.125259
0.125752
0.126239
0.126721
0.127197
0.127667
0.128129
0.128585
0.129033
0.129473
0.129904
0.130327
0.13074
0.131145
0.13154
0.131924
0.132299
0.132663
0.133017
0.133361
0.133693
0.134015
0.134325
0.134625
0.134913
0.13519
0.135457
0.135712
0.135956
0.136189
0.136412
0.136623
0.136825
0.137015
0.137196
0.137366
0.137526
0.137676
0.137817
0.137949
0.138071
0.138185
0.138289
0.138385
0.138473
0.138553
0.138624
0.138688
0.138745
0.138794
0.138836
0.138871
0.138899
0.138921
0.138936
0.138946
0.138949
0.138946
0.138938
0.138925
0.138906
0.138882
0.138853
0.138819
0.138781
0.138739
0.138692
0.138641
0.138586
0.138527
0.138465
0.1384
0.138331
0.138259
0.138185
0.138107
0.138027
0.137945
0.13786
0.137773
0.137684
0.137593
0.1375
0.137405
0.137309
0.137211
0.137112
0.137012
0.13691
0.136808
0.136704
0.136599
0.136494
0.136387
0.13628
0.136173
0.136065
0.135956
0.135847
0.135737
0.135627
0.135517
0.135407
0.135296
0.135185
0.135075
0.134964
0.134854
0.134743
0.134633
0.134523
0.134413
0.134304
0.134195
0.134086
0.133978
0.13387
0.133763
0.133656
0.13355
0.133444
0.133339
0.133235
0.133131
0.133029
0.132926
0.132825
0.132724
0.132624
0.132525
0.132426
0.132328
0.132231
0.132135
0.132039
0.131944
0.13185
0.131757
0.131665
0.131573
0.131482
0.131392
0.131303
0.131215
0.131127
0.131041
0.130955
0.13087
0.130786
0.130703
0.13062
0.130539
0.130458
0.130378
0.130299
0.130221
0.130144
0.130067
0.129992
0.129917
0.129843
0.12977
0.129698
0.129626
0.129555
0.129485
0.129416
0.129348
0.12928
0.129213
0.129147
0.129081
0.129017
0.128953
0.128889
0.128827
0.128765
0.128704
0.128643
0.128583
0.128524
0.128466
0.128408
0.128351
0.128294
0.128238
0.128183
0.128129
0.128075
0.128021
0.127969
0.127917
0.127865
0.127814
0.127764
0.127714
0.127665
0.127616
0.127568
0.127521
0.127474
0.127427
0.127382
0.127336
0.127291
0.127247
0.127203
0.12716
0.127117
0.127074
0.127032
0.126991
0.12695
0.126909
0.126869
0.12683
0.12679
0.126752
0.126713
0.126676
0.126638
0.126601
0.126565
0.126529
0.126493
0.126458
0.126423
0.126389
0.126355
0.126321
0.126288
0.126256
0.126223
0.126191
0.12616
0.126129
0.126098
0.126068
0.126039
0.126009
0.12598
0.125952
0.125924
0.125896
0.125869
0.125842
0.125816
0.12579
0.125764
0.125739
0.125715
0.12569
0.125667
0.125643
0.125621
0.125598
0.125577
0.125555
0.125534
0.125514
0.125494
0.125475
0.125456
0.125437
0.12542
0.125402
0.125386
0.125369
0.125354
0.125338
0.125324
0.12531
0.125296
0.125283
0.125271
0.125259
0.125248
0.125237
0.125227
0.125217
0.125208
0.1252
0.125192
0.125185
0.125178
0.125172
0.125167
0.125162
0.125157
0.125153
0.125149
0.125146
0.125144
0.125141
0.125139
0.125138
0.125136
0.125135
0.125134
0.125134
0.125133
0.125133
0.125132
0.125131
0.125131
0.1
0.100007
0.100016
0.100025
0.100036
0.100048
0.100062
0.100079
0.100098
0.100122
0.100149
0.10018
0.100217
0.100258
0.100306
0.100359
0.100418
0.100482
0.100553
0.100629
0.10071
0.100797
0.100889
0.100986
0.101087
0.101194
0.101304
0.101419
0.101539
0.101662
0.101791
0.101924
0.102062
0.102205
0.102354
0.102508
0.102669
0.102836
0.10301
0.103191
0.103379
0.103575
0.103779
0.10399
0.10421
0.104438
0.104675
0.10492
0.105173
0.105435
0.105706
0.105985
0.106272
0.106568
0.106872
0.107184
0.107505
0.107834
0.108172
0.108518
0.108873
0.109236
0.109607
0.109987
0.110376
0.110773
0.111178
0.111592
0.112014
0.112444
0.112882
0.113327
0.113781
0.114241
0.114708
0.115182
0.115662
0.116148
0.116639
0.117135
0.117635
0.118139
0.118646
0.119155
0.119667
0.120181
0.120695
0.12121
0.121725
0.122238
0.122751
0.123262
0.12377
0.124275
0.124777
0.125274
0.125767
0.126256
0.126738
0.127215
0.127685
0.128148
0.128604
0.129053
0.129493
0.129925
0.130348
0.130762
0.131167
0.131562
0.131947
0.132322
0.132686
0.13304
0.133383
0.133716
0.134037
0.134348
0.134647
0.134936
0.135213
0.135479
0.135734
0.135978
0.136211
0.136433
0.136645
0.136846
0.137036
0.137216
0.137386
0.137546
0.137696
0.137837
0.137968
0.13809
0.138203
0.138308
0.138404
0.138491
0.13857
0.138642
0.138705
0.138761
0.13881
0.138852
0.138887
0.138915
0.138936
0.138951
0.13896
0.138963
0.13896
0.138952
0.138938
0.138919
0.138895
0.138866
0.138832
0.138793
0.13875
0.138703
0.138652
0.138597
0.138538
0.138476
0.13841
0.138341
0.138269
0.138195
0.138117
0.138037
0.137954
0.137869
0.137782
0.137692
0.137601
0.137508
0.137413
0.137317
0.137219
0.13712
0.137019
0.136917
0.136815
0.136711
0.136606
0.1365
0.136394
0.136287
0.136179
0.136071
0.135962
0.135853
0.135743
0.135633
0.135523
0.135412
0.135302
0.135191
0.13508
0.134969
0.134859
0.134748
0.134638
0.134528
0.134418
0.134308
0.134199
0.13409
0.133982
0.133874
0.133767
0.13366
0.133554
0.133448
0.133344
0.133239
0.133136
0.133033
0.13293
0.132829
0.132728
0.132628
0.132528
0.13243
0.132332
0.132235
0.132138
0.132043
0.131948
0.131854
0.131761
0.131668
0.131576
0.131486
0.131396
0.131306
0.131218
0.13113
0.131044
0.130958
0.130873
0.130789
0.130705
0.130623
0.130541
0.130461
0.130381
0.130302
0.130224
0.130146
0.13007
0.129994
0.129919
0.129845
0.129772
0.1297
0.129628
0.129557
0.129487
0.129418
0.129349
0.129282
0.129215
0.129148
0.129083
0.129018
0.128954
0.128891
0.128828
0.128766
0.128705
0.128644
0.128584
0.128525
0.128467
0.128409
0.128351
0.128295
0.128239
0.128184
0.128129
0.128075
0.128022
0.127969
0.127917
0.127865
0.127814
0.127764
0.127714
0.127665
0.127616
0.127568
0.127521
0.127474
0.127427
0.127381
0.127336
0.127291
0.127246
0.127202
0.127159
0.127116
0.127073
0.127031
0.126989
0.126948
0.126908
0.126868
0.126828
0.126789
0.12675
0.126711
0.126673
0.126636
0.126599
0.126562
0.126526
0.12649
0.126455
0.12642
0.126386
0.126352
0.126318
0.126285
0.126252
0.12622
0.126188
0.126156
0.126125
0.126095
0.126064
0.126034
0.126005
0.125976
0.125947
0.125919
0.125891
0.125864
0.125837
0.125811
0.125784
0.125759
0.125734
0.125709
0.125685
0.125661
0.125637
0.125615
0.125592
0.12557
0.125549
0.125528
0.125507
0.125487
0.125468
0.125449
0.12543
0.125412
0.125395
0.125378
0.125362
0.125346
0.12533
0.125316
0.125301
0.125288
0.125275
0.125262
0.12525
0.125239
0.125228
0.125218
0.125208
0.125199
0.125191
0.125183
0.125175
0.125168
0.125162
0.125157
0.125151
0.125147
0.125143
0.125139
0.125136
0.125133
0.12513
0.125128
0.125127
0.125125
0.125124
0.125123
0.125123
0.125122
0.125121
0.125121
0.12512
0.12512
0.1
0.100007
0.100016
0.100025
0.100036
0.100048
0.100062
0.100079
0.100098
0.100121
0.100148
0.10018
0.100216
0.100258
0.100305
0.100358
0.100416
0.100481
0.100551
0.100627
0.100708
0.100795
0.100887
0.100983
0.101084
0.10119
0.101301
0.101415
0.101534
0.101658
0.101786
0.101919
0.102057
0.1022
0.102348
0.102502
0.102662
0.102829
0.103003
0.103183
0.103371
0.103567
0.10377
0.103982
0.104202
0.10443
0.104666
0.104911
0.105164
0.105426
0.105696
0.105975
0.106262
0.106558
0.106862
0.107174
0.107495
0.107824
0.108162
0.108508
0.108863
0.109227
0.109598
0.109979
0.110368
0.110765
0.111171
0.111585
0.112008
0.112438
0.112877
0.113324
0.113778
0.114239
0.114707
0.115182
0.115663
0.11615
0.116642
0.117139
0.11764
0.118145
0.118654
0.119165
0.119678
0.120193
0.120709
0.121225
0.121741
0.122256
0.12277
0.123282
0.123791
0.124298
0.124801
0.1253
0.125794
0.126283
0.126767
0.127245
0.127716
0.12818
0.128637
0.129086
0.129527
0.12996
0.130383
0.130798
0.131203
0.131598
0.131984
0.132359
0.132724
0.133078
0.133421
0.133754
0.134075
0.134386
0.134685
0.134973
0.13525
0.135516
0.135771
0.136015
0.136248
0.13647
0.136681
0.136881
0.137071
0.137251
0.13742
0.13758
0.13773
0.13787
0.138001
0.138122
0.138235
0.138339
0.138434
0.138521
0.138599
0.13867
0.138733
0.138789
0.138837
0.138878
0.138913
0.13894
0.138961
0.138976
0.138984
0.138987
0.138984
0.138975
0.13896
0.138941
0.138916
0.138886
0.138852
0.138813
0.13877
0.138722
0.138671
0.138616
0.138556
0.138494
0.138428
0.138358
0.138286
0.138211
0.138133
0.138052
0.137969
0.137884
0.137796
0.137707
0.137615
0.137522
0.137427
0.13733
0.137232
0.137132
0.137032
0.13693
0.136827
0.136723
0.136618
0.136512
0.136405
0.136298
0.13619
0.136081
0.135972
0.135863
0.135753
0.135643
0.135532
0.135422
0.135311
0.1352
0.135089
0.134978
0.134867
0.134757
0.134646
0.134536
0.134426
0.134316
0.134207
0.134098
0.13399
0.133882
0.133774
0.133668
0.133561
0.133456
0.13335
0.133246
0.133142
0.133039
0.132937
0.132835
0.132734
0.132634
0.132534
0.132436
0.132338
0.13224
0.132144
0.132048
0.131953
0.131859
0.131766
0.131673
0.131582
0.131491
0.131401
0.131311
0.131223
0.131135
0.131049
0.130963
0.130878
0.130793
0.13071
0.130627
0.130546
0.130465
0.130385
0.130306
0.130228
0.13015
0.130074
0.129998
0.129923
0.129849
0.129776
0.129703
0.129631
0.129561
0.12949
0.129421
0.129352
0.129285
0.129218
0.129151
0.129086
0.129021
0.128956
0.128893
0.12883
0.128768
0.128707
0.128646
0.128586
0.128527
0.128468
0.12841
0.128353
0.128296
0.12824
0.128185
0.12813
0.128076
0.128022
0.127969
0.127917
0.127866
0.127814
0.127764
0.127714
0.127665
0.127616
0.127568
0.12752
0.127473
0.127426
0.12738
0.127334
0.127289
0.127245
0.1272
0.127157
0.127114
0.127071
0.127029
0.126987
0.126946
0.126905
0.126865
0.126825
0.126785
0.126746
0.126708
0.12667
0.126632
0.126595
0.126558
0.126522
0.126486
0.12645
0.126415
0.126381
0.126346
0.126313
0.126279
0.126246
0.126214
0.126182
0.12615
0.126119
0.126088
0.126057
0.126027
0.125998
0.125968
0.12594
0.125911
0.125883
0.125856
0.125829
0.125802
0.125776
0.12575
0.125724
0.125699
0.125675
0.125651
0.125627
0.125604
0.125582
0.125559
0.125538
0.125517
0.125496
0.125476
0.125456
0.125437
0.125418
0.1254
0.125382
0.125365
0.125348
0.125332
0.125317
0.125302
0.125287
0.125274
0.12526
0.125247
0.125235
0.125224
0.125213
0.125202
0.125192
0.125183
0.125174
0.125166
0.125159
0.125152
0.125145
0.125139
0.125134
0.125129
0.125125
0.125121
0.125118
0.125115
0.125112
0.12511
0.125108
0.125107
0.125106
0.125105
0.125104
0.125103
0.125102
0.125102
0.125101
0.125101
0.1
0.100007
0.100016
0.100025
0.100035
0.100048
0.100062
0.100078
0.100098
0.100121
0.100148
0.100179
0.100215
0.100257
0.100304
0.100356
0.100415
0.100479
0.100549
0.100624
0.100705
0.100792
0.100883
0.100979
0.10108
0.101186
0.101296
0.10141
0.101529
0.101652
0.101779
0.101912
0.102049
0.102192
0.10234
0.102494
0.102653
0.10282
0.102993
0.103173
0.103361
0.103556
0.103759
0.10397
0.10419
0.104417
0.104653
0.104898
0.105151
0.105412
0.105682
0.105961
0.106248
0.106544
0.106848
0.10716
0.107481
0.10781
0.108148
0.108495
0.10885
0.109213
0.109586
0.109967
0.110356
0.110754
0.111161
0.111576
0.111999
0.112431
0.112871
0.113318
0.113774
0.114236
0.114706
0.115182
0.115665
0.116153
0.116647
0.117145
0.117648
0.118155
0.118665
0.119178
0.119693
0.12021
0.120728
0.121246
0.121763
0.122281
0.122796
0.12331
0.123821
0.12433
0.124834
0.125335
0.125831
0.126322
0.126807
0.127286
0.127759
0.128224
0.128682
0.129133
0.129575
0.130008
0.130433
0.130848
0.131254
0.13165
0.132036
0.132411
0.132776
0.133131
0.133474
0.133807
0.134129
0.134439
0.134738
0.135026
0.135303
0.135569
0.135823
0.136066
0.136299
0.13652
0.136731
0.136931
0.13712
0.137299
0.137468
0.137627
0.137776
0.137916
0.138046
0.138167
0.138278
0.138382
0.138476
0.138562
0.13864
0.13871
0.138773
0.138828
0.138875
0.138916
0.138949
0.138976
0.138996
0.13901
0.139018
0.13902
0.139016
0.139006
0.138991
0.138971
0.138946
0.138916
0.138881
0.138841
0.138797
0.138749
0.138697
0.138641
0.138582
0.138518
0.138452
0.138382
0.138309
0.138234
0.138155
0.138074
0.137991
0.137905
0.137817
0.137727
0.137635
0.137541
0.137445
0.137348
0.13725
0.13715
0.137049
0.136947
0.136843
0.136739
0.136634
0.136527
0.136421
0.136313
0.136205
0.136096
0.135987
0.135877
0.135767
0.135656
0.135545
0.135435
0.135324
0.135213
0.135101
0.13499
0.134879
0.134768
0.134658
0.134547
0.134437
0.134327
0.134218
0.134109
0.134
0.133892
0.133785
0.133678
0.133571
0.133465
0.13336
0.133255
0.133152
0.133048
0.132946
0.132844
0.132743
0.132643
0.132543
0.132444
0.132346
0.132249
0.132152
0.132056
0.131961
0.131867
0.131774
0.131681
0.131589
0.131498
0.131408
0.131318
0.13123
0.131142
0.131055
0.130969
0.130884
0.1308
0.130716
0.130634
0.130552
0.130471
0.130391
0.130311
0.130233
0.130156
0.130079
0.130003
0.129928
0.129854
0.12978
0.129708
0.129636
0.129565
0.129495
0.129425
0.129356
0.129288
0.129221
0.129155
0.129089
0.129024
0.12896
0.128896
0.128833
0.128771
0.128709
0.128648
0.128588
0.128529
0.12847
0.128412
0.128354
0.128297
0.128241
0.128186
0.128131
0.128077
0.128023
0.12797
0.127917
0.127865
0.127814
0.127764
0.127713
0.127664
0.127615
0.127566
0.127519
0.127471
0.127424
0.127378
0.127332
0.127287
0.127242
0.127198
0.127154
0.12711
0.127068
0.127025
0.126983
0.126942
0.126901
0.12686
0.12682
0.12678
0.126741
0.126702
0.126664
0.126626
0.126589
0.126552
0.126515
0.126479
0.126443
0.126408
0.126373
0.126339
0.126305
0.126271
0.126238
0.126205
0.126173
0.126141
0.126109
0.126078
0.126047
0.126017
0.125987
0.125957
0.125928
0.1259
0.125871
0.125844
0.125816
0.125789
0.125763
0.125737
0.125711
0.125686
0.125661
0.125637
0.125613
0.125589
0.125566
0.125544
0.125522
0.1255
0.125479
0.125459
0.125439
0.125419
0.1254
0.125382
0.125364
0.125346
0.125329
0.125313
0.125297
0.125282
0.125267
0.125253
0.125239
0.125226
0.125214
0.125202
0.125191
0.12518
0.12517
0.12516
0.125151
0.125143
0.125135
0.125128
0.125121
0.125115
0.125109
0.125104
0.1251
0.125096
0.125092
0.125089
0.125086
0.125084
0.125082
0.125081
0.125079
0.125078
0.125077
0.125076
0.125076
0.125075
0.125074
0.125074
0.1
0.100007
0.100015
0.100025
0.100035
0.100047
0.100061
0.100078
0.100097
0.10012
0.100147
0.100178
0.100214
0.100256
0.100302
0.100355
0.100413
0.100477
0.100546
0.100621
0.100702
0.100788
0.100879
0.100975
0.101075
0.10118
0.101289
0.101403
0.101521
0.101644
0.101771
0.101903
0.10204
0.102182
0.102329
0.102482
0.102642
0.102808
0.10298
0.10316
0.103347
0.103542
0.103745
0.103955
0.104174
0.104401
0.104637
0.104881
0.105134
0.105395
0.105665
0.105943
0.10623
0.106525
0.106829
0.107142
0.107463
0.107792
0.10813
0.108477
0.108832
0.109197
0.109569
0.109951
0.110341
0.11074
0.111147
0.111564
0.111988
0.112421
0.112862
0.113311
0.113768
0.114232
0.114704
0.115182
0.115666
0.116157
0.116652
0.117153
0.117658
0.118168
0.11868
0.119195
0.119713
0.120232
0.120752
0.121272
0.121793
0.122312
0.12283
0.123347
0.12386
0.124371
0.124878
0.125381
0.125879
0.126372
0.126859
0.12734
0.127814
0.128281
0.128741
0.129193
0.129636
0.130071
0.130497
0.130913
0.13132
0.131716
0.132103
0.132479
0.132844
0.133199
0.133543
0.133875
0.134197
0.134507
0.134806
0.135094
0.135371
0.135636
0.13589
0.136133
0.136364
0.136585
0.136795
0.136994
0.137183
0.137361
0.137529
0.137687
0.137836
0.137974
0.138104
0.138224
0.138335
0.138437
0.13853
0.138616
0.138693
0.138762
0.138823
0.138877
0.138924
0.138964
0.138996
0.139022
0.139041
0.139054
0.139061
0.139062
0.139058
0.139047
0.139031
0.13901
0.138984
0.138953
0.138917
0.138877
0.138833
0.138784
0.138731
0.138674
0.138614
0.13855
0.138483
0.138412
0.138339
0.138263
0.138184
0.138102
0.138018
0.137931
0.137843
0.137752
0.13766
0.137566
0.13747
0.137372
0.137273
0.137173
0.137071
0.136968
0.136865
0.13676
0.136654
0.136548
0.13644
0.136332
0.136224
0.136114
0.136005
0.135895
0.135784
0.135673
0.135562
0.135451
0.13534
0.135229
0.135117
0.135006
0.134895
0.134783
0.134672
0.134562
0.134451
0.134341
0.134232
0.134122
0.134014
0.133905
0.133798
0.13369
0.133584
0.133478
0.133372
0.133267
0.133163
0.13306
0.132957
0.132855
0.132754
0.132653
0.132554
0.132455
0.132356
0.132259
0.132162
0.132066
0.131971
0.131877
0.131783
0.13169
0.131598
0.131507
0.131417
0.131327
0.131238
0.13115
0.131063
0.130977
0.130892
0.130807
0.130724
0.130641
0.130559
0.130478
0.130398
0.130318
0.13024
0.130162
0.130085
0.130009
0.129934
0.12986
0.129786
0.129713
0.129641
0.12957
0.1295
0.12943
0.129361
0.129293
0.129225
0.129159
0.129093
0.129028
0.128963
0.128899
0.128836
0.128774
0.128712
0.128651
0.128591
0.128531
0.128472
0.128413
0.128356
0.128299
0.128242
0.128187
0.128131
0.128077
0.128023
0.12797
0.127917
0.127865
0.127813
0.127762
0.127712
0.127662
0.127613
0.127564
0.127516
0.127469
0.127421
0.127375
0.127329
0.127283
0.127238
0.127193
0.127149
0.127106
0.127062
0.12702
0.126978
0.126936
0.126894
0.126854
0.126813
0.126773
0.126734
0.126695
0.126656
0.126618
0.12658
0.126543
0.126506
0.126469
0.126433
0.126398
0.126363
0.126328
0.126293
0.126259
0.126226
0.126193
0.12616
0.126128
0.126096
0.126064
0.126033
0.126003
0.125972
0.125942
0.125913
0.125884
0.125855
0.125827
0.125799
0.125772
0.125745
0.125719
0.125693
0.125667
0.125642
0.125617
0.125593
0.125569
0.125546
0.125523
0.125501
0.125479
0.125457
0.125436
0.125416
0.125396
0.125377
0.125358
0.125339
0.125322
0.125304
0.125288
0.125271
0.125256
0.125241
0.125226
0.125212
0.125199
0.125186
0.125173
0.125162
0.125151
0.12514
0.12513
0.125121
0.125112
0.125104
0.125096
0.125089
0.125083
0.125077
0.125072
0.125067
0.125062
0.125059
0.125055
0.125052
0.12505
0.125047
0.125046
0.125044
0.125043
0.125042
0.125041
0.12504
0.125039
0.125038
0.125038
0.1
0.100007
0.100015
0.100024
0.100035
0.100047
0.100061
0.100077
0.100097
0.100119
0.100146
0.100177
0.100213
0.100254
0.1003
0.100353
0.10041
0.100474
0.100543
0.100618
0.100698
0.100783
0.100873
0.100969
0.101068
0.101173
0.101282
0.101395
0.101512
0.101634
0.101761
0.101892
0.102028
0.102169
0.102316
0.102469
0.102628
0.102793
0.102965
0.103144
0.103331
0.103525
0.103727
0.103937
0.104155
0.104382
0.104617
0.104861
0.105113
0.105374
0.105643
0.105921
0.106208
0.106503
0.106807
0.107119
0.10744
0.10777
0.108108
0.108455
0.108811
0.109176
0.109549
0.109931
0.110323
0.110722
0.111131
0.111549
0.111975
0.112409
0.112852
0.113303
0.113761
0.114228
0.114701
0.115181
0.115668
0.116161
0.116659
0.117163
0.117671
0.118183
0.118698
0.119216
0.119736
0.120258
0.120781
0.121305
0.121828
0.122351
0.122872
0.123391
0.123908
0.124421
0.124931
0.125437
0.125937
0.126433
0.126922
0.127406
0.127882
0.128351
0.128813
0.129266
0.129711
0.130148
0.130575
0.130992
0.1314
0.131797
0.132185
0.132561
0.132927
0.133282
0.133626
0.133959
0.134281
0.134591
0.13489
0.135177
0.135453
0.135718
0.135971
0.136213
0.136445
0.136665
0.136874
0.137072
0.13726
0.137437
0.137604
0.137761
0.137909
0.138046
0.138174
0.138293
0.138403
0.138504
0.138597
0.138681
0.138757
0.138825
0.138885
0.138938
0.138983
0.139022
0.139053
0.139078
0.139096
0.139108
0.139114
0.139114
0.139108
0.139097
0.13908
0.139058
0.139031
0.138999
0.138962
0.138921
0.138875
0.138826
0.138772
0.138715
0.138653
0.138589
0.138521
0.138449
0.138375
0.138298
0.138218
0.138136
0.138051
0.137964
0.137875
0.137784
0.13769
0.137596
0.137499
0.137401
0.137301
0.1372
0.137098
0.136995
0.136891
0.136785
0.136679
0.136572
0.136464
0.136356
0.136247
0.136137
0.136027
0.135916
0.135805
0.135694
0.135583
0.135471
0.13536
0.135248
0.135136
0.135024
0.134913
0.134801
0.13469
0.134579
0.134469
0.134358
0.134248
0.134139
0.13403
0.133921
0.133813
0.133706
0.133599
0.133492
0.133387
0.133282
0.133177
0.133074
0.132971
0.132869
0.132767
0.132666
0.132566
0.132467
0.132369
0.132271
0.132174
0.132078
0.131982
0.131888
0.131794
0.131701
0.131609
0.131517
0.131427
0.131337
0.131248
0.13116
0.131073
0.130987
0.130901
0.130816
0.130733
0.13065
0.130567
0.130486
0.130406
0.130326
0.130247
0.130169
0.130092
0.130016
0.129941
0.129866
0.129792
0.129719
0.129647
0.129576
0.129505
0.129435
0.129366
0.129298
0.12923
0.129163
0.129097
0.129031
0.128967
0.128902
0.128839
0.128776
0.128714
0.128653
0.128593
0.128533
0.128473
0.128415
0.128357
0.128299
0.128243
0.128187
0.128131
0.128076
0.128022
0.127969
0.127916
0.127863
0.127811
0.12776
0.12771
0.127659
0.12761
0.127561
0.127512
0.127464
0.127417
0.12737
0.127324
0.127278
0.127232
0.127187
0.127143
0.127099
0.127055
0.127012
0.12697
0.126928
0.126886
0.126845
0.126804
0.126764
0.126724
0.126684
0.126645
0.126607
0.126569
0.126531
0.126494
0.126457
0.12642
0.126384
0.126349
0.126313
0.126279
0.126244
0.12621
0.126177
0.126144
0.126111
0.126079
0.126047
0.126015
0.125984
0.125953
0.125923
0.125893
0.125864
0.125835
0.125806
0.125778
0.12575
0.125723
0.125696
0.125669
0.125643
0.125618
0.125592
0.125568
0.125543
0.12552
0.125496
0.125473
0.125451
0.125429
0.125408
0.125387
0.125367
0.125347
0.125327
0.125308
0.12529
0.125272
0.125255
0.125238
0.125222
0.125207
0.125192
0.125177
0.125163
0.12515
0.125137
0.125125
0.125113
0.125102
0.125092
0.125082
0.125073
0.125064
0.125056
0.125049
0.125042
0.125036
0.12503
0.125025
0.12502
0.125016
0.125012
0.125009
0.125006
0.125004
0.125002
0.125
0.124999
0.124997
0.124996
0.124995
0.124994
0.124993
0.124993
0.1
0.100007
0.100015
0.100024
0.100035
0.100046
0.10006
0.100077
0.100096
0.100118
0.100145
0.100176
0.100211
0.100252
0.100298
0.10035
0.100407
0.10047
0.100539
0.100613
0.100693
0.100777
0.100867
0.100962
0.101061
0.101164
0.101272
0.101385
0.101501
0.101623
0.101748
0.101879
0.102014
0.102155
0.102301
0.102453
0.102611
0.102775
0.102946
0.103125
0.103311
0.103504
0.103705
0.103915
0.104133
0.104359
0.104593
0.104836
0.105088
0.105348
0.105617
0.105895
0.106181
0.106476
0.10678
0.107092
0.107413
0.107743
0.108082
0.108429
0.108785
0.109151
0.109525
0.109908
0.1103
0.110701
0.111111
0.11153
0.111958
0.112394
0.112839
0.113292
0.113753
0.114222
0.114698
0.115181
0.11567
0.116166
0.116667
0.117174
0.117685
0.1182
0.118719
0.11924
0.119764
0.12029
0.120816
0.121343
0.12187
0.122396
0.122921
0.123444
0.123964
0.124481
0.124994
0.125503
0.126007
0.126505
0.126997
0.127483
0.127963
0.128434
0.128898
0.129354
0.129801
0.130239
0.130667
0.131086
0.131495
0.131894
0.132282
0.132659
0.133026
0.133381
0.133725
0.134058
0.13438
0.13469
0.134988
0.135275
0.135551
0.135815
0.136068
0.136309
0.136539
0.136758
0.136967
0.137164
0.137351
0.137527
0.137693
0.137849
0.137995
0.138131
0.138258
0.138375
0.138484
0.138584
0.138675
0.138758
0.138832
0.138899
0.138958
0.139009
0.139054
0.139091
0.139121
0.139144
0.139161
0.139172
0.139176
0.139175
0.139168
0.139155
0.139137
0.139114
0.139086
0.139053
0.139015
0.138973
0.138926
0.138875
0.13882
0.138762
0.1387
0.138634
0.138565
0.138493
0.138418
0.13834
0.138259
0.138176
0.13809
0.138002
0.137912
0.13782
0.137726
0.137631
0.137533
0.137435
0.137334
0.137233
0.13713
0.137026
0.136921
0.136815
0.136708
0.136601
0.136492
0.136383
0.136273
0.136163
0.136053
0.135942
0.13583
0.135719
0.135607
0.135495
0.135383
0.135271
0.135158
0.135046
0.134934
0.134822
0.134711
0.1346
0.134488
0.134378
0.134268
0.134158
0.134048
0.133939
0.133831
0.133723
0.133616
0.133509
0.133403
0.133298
0.133194
0.13309
0.132986
0.132884
0.132782
0.132681
0.132581
0.132481
0.132383
0.132285
0.132187
0.132091
0.131995
0.131901
0.131807
0.131713
0.131621
0.131529
0.131438
0.131348
0.131259
0.131171
0.131084
0.130997
0.130911
0.130826
0.130742
0.130659
0.130576
0.130495
0.130414
0.130334
0.130255
0.130177
0.1301
0.130023
0.129948
0.129873
0.129799
0.129726
0.129653
0.129581
0.12951
0.12944
0.129371
0.129302
0.129234
0.129167
0.1291
0.129035
0.12897
0.128905
0.128842
0.128779
0.128716
0.128655
0.128594
0.128534
0.128474
0.128415
0.128357
0.128299
0.128242
0.128186
0.12813
0.128075
0.12802
0.127966
0.127913
0.12786
0.127808
0.127756
0.127705
0.127655
0.127605
0.127555
0.127507
0.127458
0.12741
0.127363
0.127316
0.12727
0.127224
0.127179
0.127134
0.127089
0.127045
0.127002
0.126959
0.126916
0.126874
0.126833
0.126791
0.126751
0.12671
0.12667
0.126631
0.126592
0.126553
0.126515
0.126477
0.12644
0.126403
0.126367
0.126331
0.126295
0.12626
0.126225
0.12619
0.126156
0.126123
0.126089
0.126057
0.126024
0.125992
0.125961
0.125929
0.125898
0.125868
0.125838
0.125808
0.125779
0.125751
0.125722
0.125694
0.125667
0.12564
0.125613
0.125587
0.125561
0.125536
0.125511
0.125487
0.125463
0.12544
0.125417
0.125394
0.125372
0.125351
0.12533
0.125309
0.125289
0.12527
0.125251
0.125233
0.125215
0.125198
0.125181
0.125165
0.125149
0.125134
0.12512
0.125106
0.125092
0.12508
0.125068
0.125056
0.125045
0.125035
0.125025
0.125016
0.125007
0.125
0.124992
0.124985
0.124979
0.124974
0.124968
0.124964
0.12496
0.124956
0.124953
0.12495
0.124948
0.124946
0.124944
0.124943
0.124942
0.124941
0.12494
0.124939
0.124939
0.1
0.100007
0.100015
0.100024
0.100034
0.100046
0.10006
0.100076
0.100095
0.100117
0.100144
0.100174
0.10021
0.10025
0.100296
0.100347
0.100404
0.100466
0.100534
0.100608
0.100687
0.100771
0.10086
0.100953
0.101052
0.101154
0.101262
0.101373
0.101489
0.101609
0.101734
0.101864
0.101998
0.102138
0.102283
0.102434
0.102591
0.102755
0.102925
0.103103
0.103288
0.10348
0.103681
0.103889
0.104106
0.104332
0.104566
0.104808
0.105059
0.105319
0.105587
0.105864
0.10615
0.106445
0.106748
0.107061
0.107382
0.107712
0.108051
0.108399
0.108756
0.109122
0.109497
0.109881
0.110274
0.110677
0.111088
0.111509
0.111939
0.112377
0.112824
0.113279
0.113743
0.114214
0.114693
0.115179
0.115672
0.116171
0.116676
0.117186
0.117701
0.11822
0.118743
0.119268
0.119796
0.120326
0.120857
0.121388
0.121919
0.122449
0.122978
0.123505
0.124029
0.12455
0.125067
0.125579
0.126087
0.126589
0.127084
0.127574
0.128056
0.12853
0.128997
0.129455
0.129904
0.130344
0.130774
0.131195
0.131605
0.132005
0.132394
0.132772
0.13314
0.133495
0.13384
0.134173
0.134494
0.134804
0.135102
0.135389
0.135664
0.135927
0.136179
0.13642
0.136649
0.136867
0.137074
0.13727
0.137455
0.13763
0.137795
0.137949
0.138094
0.138229
0.138354
0.13847
0.138577
0.138675
0.138765
0.138846
0.138919
0.138984
0.139042
0.139092
0.139134
0.13917
0.139198
0.13922
0.139236
0.139245
0.139248
0.139245
0.139237
0.139223
0.139203
0.139178
0.139149