# vtk DataFile Version 3.0
LBM Fluid Grid
ASCII
DATASET STRUCTURED_POINTS
DIMENSIONS 400 150 1
ORIGIN 0 0 0
SPACING 1 1 1
POINT_DATA 60000
SCALARS VelocityMagnitude double 1
LOOKUP_TABLE default
0.1
0.100001
0.100006
0.100015
0.100027
0.100043
0.100063
0.100087
0.100115
0.100146
0.100181
0.10022
0.100263
0.100309
0.10036
0.100414
0.100472
0.100535
0.100602
0.100673
0.100748
0.100829
0.100913
0.101003
0.101098
0.101197
0.101302
0.101412
0.101528
0.101649
0.101776
0.101908
0.102047
0.102191
0.102342
0.102499
0.102663
0.102833
0.103009
0.103193
0.103383
0.103581
0.103785
0.103998
0.104217
0.104445
0.10468
0.104923
0.105174
0.105433
0.105701
0.105977
0.106262
0.106555
0.106857
0.107168
0.107487
0.107816
0.108153
0.1085
0.108855
0.109219
0.109592
0.109974
0.110364
0.110763
0.111171
0.111586
0.11201
0.112442
0.112881
0.113328
0.113782
0.114242
0.11471
0.115183
0.115663
0.116148
0.116638
0.117132
0.117631
0.118134
0.11864
0.119148
0.119659
0.120172
0.120686
0.1212
0.121714
0.122228
0.122741
0.123252
0.123761
0.124267
0.12477
0.125269
0.125763
0.126252
0.126736
0.127214
0.127685
0.128149
0.128606
0.129055
0.129496
0.129928
0.130351
0.130765
0.131169
0.131564
0.131949
0.132323
0.132687
0.13304
0.133383
0.133715
0.134036
0.134346
0.134645
0.134933
0.13521
0.135476
0.135731
0.135975
0.136208
0.13643
0.136642
0.136844
0.137035
0.137216
0.137386
0.137547
0.137698
0.13784
0.137972
0.138095
0.138208
0.138313
0.138409
0.138497
0.138577
0.138648
0.138712
0.138768
0.138816
0.138858
0.138892
0.138919
0.13894
0.138955
0.138963
0.138965
0.138962
0.138953
0.138938
0.138919
0.138894
0.138864
0.13883
0.138791
0.138748
0.138701
0.13865
0.138595
0.138537
0.138474
0.138409
0.13834
0.138269
0.138194
0.138117
0.138037
0.137955
0.13787
0.137783
0.137694
0.137603
0.13751
0.137415
0.137319
0.137221
0.137122
0.137022
0.13692
0.136817
0.136713
0.136608
0.136502
0.136396
0.136289
0.136181
0.136073
0.135964
0.135855
0.135745
0.135635
0.135525
0.135415
0.135305
0.135195
0.135084
0.134974
0.134864
0.134754
0.134644
0.134535
0.134426
0.134317
0.134209
0.1341
0.133993
0.133886
0.133779
0.133673
0.133567
0.133462
0.133357
0.133253
0.13315
0.133047
0.132945
0.132844
0.132744
0.132644
0.132545
0.132446
0.132349
0.132252
0.132156
0.13206
0.131966
0.131872
0.131779
0.131687
0.131596
0.131505
0.131415
0.131327
0.131239
0.131151
0.131065
0.13098
0.130895
0.130811
0.130728
0.130646
0.130564
0.130484
0.130404
0.130325
0.130247
0.13017
0.130093
0.130017
0.129942
0.129868
0.129795
0.129722
0.12965
0.129579
0.129509
0.12944
0.129371
0.129303
0.129236
0.129169
0.129103
0.129038
0.128974
0.12891
0.128847
0.128785
0.128723
0.128663
0.128602
0.128543
0.128484
0.128426
0.128368
0.128311
0.128255
0.128199
0.128144
0.12809
0.128036
0.127983
0.12793
0.127878
0.127826
0.127776
0.127725
0.127675
0.127626
0.127578
0.12753
0.127482
0.127435
0.127388
0.127342
0.127297
0.127252
0.127208
0.127164
0.12712
0.127077
0.127035
0.126993
0.126951
0.12691
0.12687
0.12683
0.12679
0.126751
0.126713
0.126674
0.126637
0.126599
0.126562
0.126526
0.12649
0.126454
0.126419
0.126385
0.126351
0.126317
0.126283
0.12625
0.126218
0.126186
0.126154
0.126123
0.126092
0.126062
0.126032
0.126003
0.125974
0.125945
0.125917
0.125889
0.125862
0.125835
0.125809
0.125783
0.125758
0.125733
0.125708
0.125684
0.12566
0.125637
0.125615
0.125592
0.125571
0.125549
0.125529
0.125509
0.125489
0.12547
0.125451
0.125433
0.125415
0.125398
0.125382
0.125366
0.12535
0.125335
0.125321
0.125307
0.125294
0.125281
0.125269
0.125258
0.125247
0.125237
0.125227
0.125218
0.125209
0.125201
0.125194
0.125187
0.125181
0.125175
0.12517
0.125165
0.125161
0.125157
0.125154
0.125151
0.125149
0.125147
0.125146
0.125145
0.125144
0.125143
0.125143
0.125142
0.125142
0.125142
0.125142
0.125141
0.125141
0.1
0.100001
0.100006
0.100014
0.100027
0.100043
0.100063
0.100087
0.100115
0.100146
0.100181
0.10022
0.100262
0.100309
0.100359
0.100414
0.100472
0.100535
0.100601
0.100672
0.100748
0.100828
0.100913
0.101002
0.101097
0.101197
0.101301
0.101411
0.101527
0.101648
0.101775
0.101907
0.102046
0.10219
0.102341
0.102498
0.102661
0.102831
0.103008
0.103191
0.103382
0.103579
0.103784
0.103996
0.104215
0.104443
0.104678
0.104921
0.105172
0.105431
0.105699
0.105975
0.10626
0.106553
0.106855
0.107166
0.107485
0.107814
0.108152
0.108498
0.108853
0.109217
0.10959
0.109972
0.110363
0.110762
0.111169
0.111585
0.112009
0.112441
0.11288
0.113327
0.113781
0.114242
0.11471
0.115183
0.115663
0.116148
0.116638
0.117133
0.117632
0.118135
0.118641
0.11915
0.119662
0.120174
0.120688
0.121203
0.121718
0.122232
0.122745
0.123256
0.123765
0.124272
0.124775
0.125274
0.125768
0.126258
0.126742
0.127219
0.127691
0.128155
0.128612
0.129061
0.129502
0.129935
0.130358
0.130772
0.131177
0.131571
0.131956
0.132331
0.132695
0.133048
0.133391
0.133722
0.134043
0.134353
0.134652
0.13494
0.135217
0.135483
0.135738
0.135982
0.136215
0.136438
0.13665
0.136851
0.137042
0.137223
0.137393
0.137554
0.137705
0.137846
0.137978
0.138101
0.138214
0.138319
0.138415
0.138503
0.138582
0.138654
0.138717
0.138773
0.138822
0.138863
0.138897
0.138925
0.138945
0.13896
0.138968
0.13897
0.138967
0.138957
0.138943
0.138923
0.138898
0.138869
0.138834
0.138795
0.138752
0.138705
0.138654
0.138599
0.13854
0.138478
0.138412
0.138344
0.138272
0.138197
0.13812
0.13804
0.137958
0.137873
0.137786
0.137697
0.137606
0.137513
0.137418
0.137322
0.137224
0.137125
0.137024
0.136922
0.136819
0.136715
0.13661
0.136505
0.136398
0.136291
0.136183
0.136075
0.135966
0.135857
0.135747
0.135637
0.135527
0.135417
0.135307
0.135196
0.135086
0.134976
0.134866
0.134756
0.134646
0.134537
0.134427
0.134319
0.13421
0.134102
0.133994
0.133887
0.13378
0.133674
0.133568
0.133463
0.133359
0.133255
0.133151
0.133049
0.132947
0.132845
0.132745
0.132645
0.132546
0.132447
0.13235
0.132253
0.132157
0.132061
0.131967
0.131873
0.13178
0.131688
0.131597
0.131506
0.131416
0.131328
0.13124
0.131152
0.131066
0.130981
0.130896
0.130812
0.130729
0.130647
0.130565
0.130485
0.130405
0.130326
0.130248
0.13017
0.130094
0.130018
0.129943
0.129869
0.129796
0.129723
0.129651
0.12958
0.12951
0.12944
0.129371
0.129303
0.129236
0.12917
0.129104
0.129039
0.128974
0.128911
0.128848
0.128785
0.128724
0.128663
0.128603
0.128543
0.128484
0.128426
0.128368
0.128311
0.128255
0.128199
0.128144
0.12809
0.128036
0.127983
0.12793
0.127878
0.127827
0.127776
0.127725
0.127675
0.127626
0.127578
0.127529
0.127482
0.127435
0.127388
0.127342
0.127297
0.127252
0.127207
0.127163
0.12712
0.127077
0.127034
0.126993
0.126951
0.12691
0.126869
0.126829
0.12679
0.126751
0.126712
0.126674
0.126636
0.126598
0.126562
0.126525
0.126489
0.126454
0.126418
0.126384
0.126349
0.126316
0.126282
0.126249
0.126217
0.126185
0.126153
0.126122
0.126091
0.126061
0.126031
0.126001
0.125972
0.125944
0.125915
0.125888
0.12586
0.125834
0.125807
0.125781
0.125756
0.125731
0.125706
0.125682
0.125658
0.125635
0.125613
0.12559
0.125569
0.125547
0.125527
0.125506
0.125487
0.125467
0.125449
0.12543
0.125413
0.125396
0.125379
0.125363
0.125348
0.125333
0.125318
0.125304
0.125291
0.125279
0.125266
0.125255
0.125244
0.125234
0.125224
0.125215
0.125206
0.125198
0.125191
0.125184
0.125177
0.125172
0.125166
0.125162
0.125158
0.125154
0.125151
0.125148
0.125146
0.125144
0.125142
0.125141
0.12514
0.125139
0.125139
0.125139
0.125138
0.125138
0.125138
0.125137
0.125137
0.1
0.100001
0.100006
0.100014
0.100027
0.100043
0.100063
0.100087
0.100114
0.100146
0.100181
0.100219
0.100262
0.100308
0.100359
0.100413
0.100471
0.100534
0.1006
0.100671
0.100747
0.100827
0.100911
0.101001
0.101095
0.101195
0.101299
0.101409
0.101524
0.101645
0.101772
0.101904
0.102043
0.102187
0.102338
0.102494
0.102658
0.102827
0.103004
0.103187
0.103377
0.103574
0.103779
0.103991
0.10421
0.104437
0.104672
0.104915
0.105166
0.105426
0.105693
0.105969
0.106254
0.106547
0.106849
0.10716
0.10748
0.107808
0.108146
0.108492
0.108848
0.109212
0.109585
0.109967
0.110358
0.110757
0.111165
0.111581
0.112005
0.112438
0.112877
0.113325
0.113779
0.114241
0.114709
0.115183
0.115664
0.11615
0.11664
0.117136
0.117636
0.11814
0.118647
0.119156
0.119668
0.120182
0.120697
0.121212
0.121728
0.122243
0.122756
0.123269
0.123778
0.124286
0.124789
0.125289
0.125784
0.126274
0.126759
0.127237
0.127709
0.128174
0.128632
0.129081
0.129523
0.129956
0.130379
0.130794
0.131199
0.131594
0.131978
0.132353
0.132717
0.133071
0.133413
0.133745
0.134066
0.134376
0.134675
0.134963
0.13524
0.135505
0.13576
0.136004
0.136237
0.136459
0.136671
0.136872
0.137063
0.137243
0.137414
0.137574
0.137725
0.137866
0.137997
0.13812
0.138233
0.138338
0.138433
0.138521
0.1386
0.138671
0.138734
0.13879
0.138838
0.138879
0.138913
0.13894
0.13896
0.138974
0.138982
0.138984
0.13898
0.138971
0.138956
0.138936
0.138911
0.138881
0.138846
0.138807
0.138764
0.138717
0.138665
0.13861
0.138551
0.138488
0.138423
0.138354
0.138282
0.138207
0.13813
0.138049
0.137967
0.137882
0.137795
0.137705
0.137614
0.137521
0.137426
0.13733
0.137232
0.137132
0.137031
0.136929
0.136826
0.136722
0.136617
0.136511
0.136405
0.136297
0.136189
0.136081
0.135972
0.135862
0.135753
0.135643
0.135533
0.135422
0.135312
0.135202
0.135091
0.134981
0.134871
0.134761
0.134651
0.134542
0.134432
0.134323
0.134215
0.134107
0.133999
0.133891
0.133785
0.133678
0.133573
0.133467
0.133363
0.133259
0.133155
0.133053
0.132951
0.132849
0.132749
0.132649
0.132549
0.132451
0.132353
0.132256
0.13216
0.132065
0.13197
0.131876
0.131783
0.131691
0.1316
0.131509
0.13142
0.131331
0.131243
0.131155
0.131069
0.130983
0.130899
0.130815
0.130732
0.130649
0.130568
0.130487
0.130407
0.130328
0.13025
0.130173
0.130096
0.13002
0.129945
0.129871
0.129798
0.129725
0.129653
0.129582
0.129512
0.129442
0.129373
0.129305
0.129238
0.129171
0.129105
0.12904
0.128976
0.128912
0.128849
0.128787
0.128725
0.128664
0.128604
0.128544
0.128485
0.128427
0.128369
0.128312
0.128256
0.1282
0.128145
0.12809
0.128036
0.127983
0.12793
0.127878
0.127827
0.127776
0.127725
0.127675
0.127626
0.127577
0.127529
0.127481
0.127434
0.127388
0.127342
0.127296
0.127251
0.127206
0.127162
0.127119
0.127076
0.127033
0.126991
0.12695
0.126908
0.126868
0.126828
0.126788
0.126749
0.12671
0.126671
0.126634
0.126596
0.126559
0.126523
0.126486
0.126451
0.126416
0.126381
0.126346
0.126313
0.126279
0.126246
0.126213
0.126181
0.126149
0.126118
0.126087
0.126057
0.126027
0.125997
0.125968
0.125939
0.125911
0.125883
0.125856
0.125829
0.125802
0.125776
0.12575
0.125725
0.125701
0.125676
0.125653
0.125629
0.125606
0.125584
0.125562
0.125541
0.12552
0.1255
0.12548
0.12546
0.125442
0.125423
0.125405
0.125388
0.125371
0.125355
0.12534
0.125325
0.12531
0.125296
0.125283
0.12527
0.125258
0.125246
0.125235
0.125225
0.125215
0.125205
0.125197
0.125188
0.125181
0.125174
0.125167
0.125162
0.125156
0.125151
0.125147
0.125143
0.12514
0.125137
0.125135
0.125133
0.125131
0.12513
0.125129
0.125128
0.125128
0.125127
0.125127
0.125127
0.125127
0.125126
0.125126
0.1
0.100001
0.100006
0.100014
0.100027
0.100043
0.100063
0.100087
0.100114
0.100145
0.10018
0.100219
0.100261
0.100307
0.100358
0.100412
0.10047
0.100532
0.100599
0.100669
0.100745
0.100824
0.100909
0.100998
0.101092
0.101191
0.101296
0.101405
0.10152
0.101641
0.101767
0.101899
0.102037
0.102182
0.102332
0.102488
0.102651
0.102821
0.102997
0.10318
0.10337
0.103567
0.103771
0.103983
0.104202
0.104429
0.104663
0.104906
0.105157
0.105416
0.105683
0.105959
0.106244
0.106537
0.106839
0.10715
0.10747
0.107798
0.108136
0.108483
0.108838
0.109203
0.109577
0.109959
0.11035
0.11075
0.111158
0.111575
0.112
0.112432
0.112873
0.113321
0.113777
0.114239
0.114708
0.115184
0.115665
0.116152
0.116644
0.117141
0.117642
0.118147
0.118655
0.119166
0.119679
0.120194
0.12071
0.121227
0.121744
0.12226
0.122776
0.123289
0.1238
0.124309
0.124814
0.125314
0.125811
0.126302
0.126788
0.127267
0.12774
0.128206
0.128664
0.129115
0.129557
0.12999
0.130415
0.13083
0.131235
0.13163
0.132016
0.13239
0.132755
0.133108
0.133451
0.133783
0.134104
0.134414
0.134713
0.135001
0.135277
0.135543
0.135797
0.136041
0.136274
0.136496
0.136707
0.136908
0.137098
0.137278
0.137448
0.137608
0.137758
0.137899
0.13803
0.138152
0.138264
0.138368
0.138464
0.13855
0.138629
0.1387
0.138762
0.138817
0.138865
0.138905
0.138939
0.138965
0.138985
0.138999
0.139006
0.139008
0.139004
0.138994
0.138978
0.138958
0.138932
0.138902
0.138867
0.138827
0.138784
0.138736
0.138684
0.138628
0.138569
0.138506
0.13844
0.138371
0.138298
0.138223
0.138145
0.138065
0.137982
0.137897
0.137809
0.13772
0.137628
0.137535
0.137439
0.137343
0.137244
0.137145
0.137044
0.136941
0.136838
0.136734
0.136629
0.136522
0.136416
0.136308
0.1362
0.136091
0.135982
0.135872
0.135763
0.135652
0.135542
0.135432
0.135321
0.135211
0.1351
0.13499
0.134879
0.134769
0.134659
0.13455
0.13444
0.134331
0.134222
0.134114
0.134006
0.133899
0.133792
0.133685
0.13358
0.133474
0.13337
0.133265
0.133162
0.133059
0.132957
0.132856
0.132755
0.132655
0.132555
0.132457
0.132359
0.132262
0.132166
0.13207
0.131976
0.131882
0.131789
0.131697
0.131605
0.131514
0.131425
0.131336
0.131248
0.13116
0.131074
0.130988
0.130903
0.130819
0.130736
0.130654
0.130572
0.130491
0.130411
0.130332
0.130254
0.130177
0.1301
0.130024
0.129949
0.129875
0.129801
0.129728
0.129656
0.129585
0.129515
0.129445
0.129376
0.129308
0.129241
0.129174
0.129108
0.129043
0.128978
0.128914
0.128851
0.128789
0.128727
0.128666
0.128606
0.128546
0.128487
0.128428
0.12837
0.128313
0.128257
0.128201
0.128146
0.128091
0.128037
0.127984
0.127931
0.127878
0.127827
0.127776
0.127725
0.127675
0.127626
0.127577
0.127528
0.127481
0.127433
0.127386
0.12734
0.127295
0.127249
0.127205
0.12716
0.127117
0.127074
0.127031
0.126989
0.126947
0.126906
0.126865
0.126824
0.126785
0.126745
0.126706
0.126668
0.12663
0.126592
0.126555
0.126518
0.126482
0.126446
0.126411
0.126376
0.126341
0.126307
0.126273
0.12624
0.126207
0.126175
0.126143
0.126111
0.12608
0.12605
0.126019
0.12599
0.12596
0.125931
0.125903
0.125875
0.125847
0.12582
0.125793
0.125767
0.125741
0.125716
0.125691
0.125667
0.125643
0.125619
0.125596
0.125573
0.125551
0.12553
0.125509
0.125488
0.125468
0.125448
0.125429
0.125411
0.125393
0.125375
0.125358
0.125342
0.125326
0.125311
0.125296
0.125282
0.125269
0.125255
0.125243
0.125231
0.12522
0.125209
0.125199
0.12519
0.125181
0.125172
0.125165
0.125157
0.125151
0.125145
0.125139
0.125134
0.12513
0.125126
0.125122
0.125119
0.125117
0.125115
0.125113
0.125112
0.125111
0.12511
0.125109
0.125109
0.125108
0.125108
0.125108
0.125107
0.125107
0.1
0.100001
0.100006
0.100014
0.100027
0.100043
0.100063
0.100086
0.100113
0.100145
0.100179
0.100218
0.10026
0.100306
0.100356
0.10041
0.100468
0.10053
0.100596
0.100667
0.100741
0.100821
0.100905
0.100994
0.101088
0.101187
0.101291
0.1014
0.101515
0.101635
0.101761
0.101893
0.10203
0.102174
0.102324
0.10248
0.102642
0.102811
0.102987
0.10317
0.103359
0.103556
0.10376
0.103971
0.10419
0.104416
0.104651
0.104893
0.105144
0.105402
0.10567
0.105945
0.10623
0.106523
0.106825
0.107136
0.107456
0.107785
0.108122
0.108469
0.108825
0.10919
0.109564
0.109947
0.110339
0.110739
0.111148
0.111566
0.111991
0.112425
0.112867
0.113316
0.113773
0.114237
0.114707
0.115184
0.115667
0.116155
0.116649
0.117147
0.11765
0.118157
0.118667
0.11918
0.119695
0.120212
0.12073
0.121248
0.121767
0.122285
0.122802
0.123318
0.123831
0.124341
0.124848
0.12535
0.125848
0.126341
0.126828
0.127309
0.127784
0.128251
0.12871
0.129162
0.129605
0.130039
0.130464
0.13088
0.131286
0.131682
0.132068
0.132443
0.132808
0.133162
0.133505
0.133837
0.134157
0.134467
0.134766
0.135053
0.13533
0.135595
0.135849
0.136092
0.136325
0.136546
0.136757
0.136957
0.137147
0.137326
0.137496
0.137655
0.137804
0.137944
0.138075
0.138196
0.138308
0.138411
0.138506
0.138592
0.13867
0.138739
0.138801
0.138856
0.138903
0.138942
0.138975
0.139001
0.13902
0.139033
0.13904
0.139041
0.139036
0.139025
0.139009
0.138988
0.138962
0.138931
0.138895
0.138855
0.138811
0.138762
0.13871
0.138654
0.138594
0.138531
0.138464
0.138394
0.138321
0.138246
0.138167
0.138086
0.138003
0.137917
0.137829
0.137739
0.137647
0.137554
0.137458
0.137361
0.137262
0.137162
0.137061
0.136958
0.136855
0.13675
0.136644
0.136538
0.136431
0.136323
0.136214
0.136105
0.135996
0.135886
0.135776
0.135666
0.135555
0.135445
0.135334
0.135223
0.135112
0.135002
0.134891
0.134781
0.134671
0.134561
0.134451
0.134342
0.134233
0.134125
0.134017
0.133909
0.133802
0.133695
0.133589
0.133484
0.133379
0.133275
0.133171
0.133068
0.132966
0.132864
0.132763
0.132663
0.132564
0.132465
0.132367
0.13227
0.132174
0.132078
0.131983
0.131889
0.131796
0.131704
0.131612
0.131522
0.131432
0.131343
0.131254
0.131167
0.13108
0.130994
0.130909
0.130825
0.130742
0.13066
0.130578
0.130497
0.130417
0.130338
0.130259
0.130182
0.130105
0.130029
0.129954
0.129879
0.129806
0.129733
0.129661
0.129589
0.129519
0.129449
0.12938
0.129312
0.129244
0.129177
0.129111
0.129046
0.128981
0.128917
0.128854
0.128791
0.128729
0.128668
0.128608
0.128548
0.128488
0.12843
0.128372
0.128315
0.128258
0.128202
0.128146
0.128092
0.128037
0.127984
0.127931
0.127878
0.127826
0.127775
0.127724
0.127674
0.127625
0.127575
0.127527
0.127479
0.127431
0.127385
0.127338
0.127292
0.127247
0.127202
0.127157
0.127114
0.12707
0.127027
0.126985
0.126943
0.126901
0.12686
0.12682
0.12678
0.12674
0.126701
0.126662
0.126624
0.126586
0.126548
0.126512
0.126475
0.126439
0.126403
0.126368
0.126333
0.126299
0.126265
0.126231
0.126198
0.126166
0.126134
0.126102
0.12607
0.126039
0.126009
0.125979
0.125949
0.12592
0.125891
0.125863
0.125835
0.125808
0.125781
0.125754
0.125728
0.125702
0.125677
0.125652
0.125628
0.125604
0.125581
0.125558
0.125536
0.125514
0.125493
0.125472
0.125451
0.125431
0.125412
0.125393
0.125375
0.125357
0.12534
0.125323
0.125307
0.125291
0.125276
0.125262
0.125248
0.125235
0.125222
0.12521
0.125198
0.125187
0.125177
0.125167
0.125158
0.125149
0.125141
0.125134
0.125127
0.125121
0.125115
0.12511
0.125105
0.125101
0.125097
0.125094
0.125091
0.125089
0.125087
0.125085
0.125084
0.125083
0.125082
0.125082
0.125081
0.125081
0.125081
0.12508
0.12508
0.1
0.100001
0.100006
0.100014
0.100027
0.100042
0.100062
0.100086
0.100113
0.100144
0.100178
0.100217
0.100259
0.100304
0.100354
0.100408
0.100465
0.100527
0.100593
0.100663
0.100738
0.100817
0.1009
0.100989
0.101082
0.101181
0.101284
0.101393
0.101507
0.101627
0.101752
0.101884
0.102021
0.102164
0.102313
0.102469
0.102631
0.102799
0.102974
0.103156
0.103345
0.103542
0.103745
0.103956
0.104174
0.1044
0.104634
0.104876
0.105127
0.105385
0.105652
0.105928
0.106212
0.106505
0.106807
0.107118
0.107438
0.107767
0.108105
0.108452
0.108808
0.109174
0.109548
0.109932
0.110324
0.110725
0.111135
0.111554
0.111981
0.112416
0.112859
0.11331
0.113768
0.114233
0.114705
0.115184
0.115669
0.116159
0.116655
0.117155
0.11766
0.118169
0.118682
0.119197
0.119714
0.120234
0.120754
0.121276
0.121797
0.122317
0.122837
0.123355
0.12387
0.124383
0.124891
0.125396
0.125896
0.126391
0.12688
0.127363
0.127839
0.128308
0.128769
0.129222
0.129666
0.130102
0.130528
0.130945
0.131352
0.131748
0.132135
0.132511
0.132876
0.13323
0.133573
0.133905
0.134226
0.134536
0.134834
0.135121
0.135397
0.135662
0.135916
0.136159
0.13639
0.136611
0.136821
0.137021
0.13721
0.137388
0.137557
0.137715
0.137864
0.138003
0.138132
0.138253
0.138364
0.138466
0.13856
0.138645
0.138722
0.138791
0.138852
0.138905
0.138951
0.13899
0.139022
0.139047
0.139065
0.139077
0.139083
0.139083
0.139077
0.139066
0.139049
0.139027
0.139
0.138968
0.138932
0.138891
0.138846
0.138797
0.138743
0.138687
0.138626
0.138562
0.138495
0.138424
0.138351
0.138275
0.138196
0.138114
0.13803
0.137944
0.137855
0.137765
0.137672
0.137578
0.137482
0.137384
0.137285
0.137185
0.137083
0.13698
0.136876
0.136771
0.136665
0.136558
0.13645
0.136342
0.136233
0.136124
0.136014
0.135904
0.135793
0.135683
0.135572
0.135461
0.13535
0.135239
0.135128
0.135017
0.134906
0.134796
0.134685
0.134575
0.134465
0.134356
0.134247
0.134138
0.13403
0.133922
0.133815
0.133708
0.133602
0.133496
0.133391
0.133286
0.133183
0.13308
0.132977
0.132875
0.132774
0.132674
0.132574
0.132475
0.132377
0.13228
0.132184
0.132088
0.131993
0.131899
0.131805
0.131713
0.131621
0.13153
0.13144
0.131351
0.131263
0.131175
0.131088
0.131002
0.130917
0.130833
0.130749
0.130667
0.130585
0.130504
0.130424
0.130344
0.130266
0.130188
0.130111
0.130035
0.12996
0.129885
0.129811
0.129738
0.129666
0.129594
0.129524
0.129454
0.129385
0.129316
0.129248
0.129181
0.129115
0.129049
0.128985
0.12892
0.128857
0.128794
0.128732
0.128671
0.12861
0.12855
0.12849
0.128431
0.128373
0.128316
0.128259
0.128203
0.128147
0.128092
0.128037
0.127984
0.12793
0.127878
0.127826
0.127774
0.127723
0.127673
0.127623
0.127573
0.127525
0.127476
0.127429
0.127381
0.127335
0.127288
0.127243
0.127198
0.127153
0.127109
0.127065
0.127022
0.126979
0.126937
0.126895
0.126854
0.126813
0.126772
0.126733
0.126693
0.126654
0.126615
0.126577
0.12654
0.126502
0.126465
0.126429
0.126393
0.126357
0.126322
0.126288
0.126253
0.12622
0.126186
0.126153
0.126121
0.126089
0.126057
0.126026
0.125995
0.125964
0.125934
0.125905
0.125876
0.125847
0.125819
0.125791
0.125764
0.125737
0.12571
0.125684
0.125659
0.125633
0.125609
0.125585
0.125561
0.125538
0.125515
0.125493
0.125471
0.12545
0.125429
0.125409
0.125389
0.12537
0.125351
0.125333
0.125315
0.125298
0.125281
0.125265
0.12525
0.125235
0.125221
0.125207
0.125194
0.125182
0.12517
0.125158
0.125147
0.125137
0.125128
0.125119
0.12511
0.125102
0.125095
0.125089
0.125083
0.125077
0.125072
0.125068
0.125064
0.12506
0.125057
0.125055
0.125052
0.125051
0.125049
0.125048
0.125047
0.125046
0.125046
0.125045
0.125045
0.125045
0.125045
0.1
0.100001
0.100006
0.100014
0.100026
0.100042
0.100062
0.100085
0.100112
0.100143
0.100177
0.100215
0.100257
0.100302
0.100352
0.100405
0.100462
0.100524
0.100589
0.100659
0.100733
0.100811
0.100895
0.100983
0.101075
0.101173
0.101276
0.101385
0.101498
0.101617
0.101742
0.101873
0.102009
0.102152
0.1023
0.102455
0.102616
0.102784
0.102959
0.10314
0.103329
0.103524
0.103727
0.103937
0.104155
0.104381
0.104614
0.104856
0.105106
0.105364
0.10563
0.105906
0.10619
0.106483
0.106785
0.107095
0.107415
0.107745
0.108083
0.108431
0.108787
0.109153
0.109529
0.109913
0.110306
0.110708
0.11112
0.111539
0.111968
0.112404
0.112849
0.113301
0.113761
0.114229
0.114703
0.115184
0.115671
0.116164
0.116662
0.117165
0.117673
0.118185
0.1187
0.119218
0.119739
0.120261
0.120785
0.121309
0.121833
0.122357
0.122879
0.1234
0.123918
0.124433
0.124945
0.125453
0.125955
0.126453
0.126944
0.127429
0.127908
0.128378
0.128841
0.129296
0.129742
0.130179
0.130607
0.131024
0.131432
0.13183
0.132217
0.132593
0.132959
0.133313
0.133657
0.133989
0.13431
0.134619
0.134918
0.135205
0.13548
0.135745
0.135998
0.13624
0.136471
0.136691
0.1369
0.137099
0.137287
0.137464
0.137632
0.137789
0.137937
0.138075
0.138203
0.138322
0.138432
0.138533
0.138626
0.13871
0.138786
0.138853
0.138913
0.138966
0.13901
0.139048
0.139079
0.139103
0.13912
0.139131
0.139136
0.139135
0.139128
0.139115
0.139097
0.139074
0.139046
0.139014
0.138976
0.138935
0.138888
0.138838
0.138784
0.138727
0.138665
0.1386
0.138532
0.138461
0.138387
0.13831
0.13823
0.138148
0.138063
0.137976
0.137887
0.137796
0.137702
0.137607
0.137511
0.137413
0.137313
0.137212
0.137109
0.137006
0.136901
0.136796
0.136689
0.136582
0.136474
0.136365
0.136256
0.136146
0.136036
0.135925
0.135814
0.135703
0.135592
0.135481
0.135369
0.135258
0.135147
0.135035
0.134924
0.134813
0.134703
0.134592
0.134482
0.134372
0.134263
0.134154
0.134045
0.133937
0.13383
0.133723
0.133616
0.13351
0.133405
0.1333
0.133196
0.133093
0.13299
0.132888
0.132787
0.132687
0.132587
0.132488
0.132389
0.132292
0.132195
0.132099
0.132004
0.13191
0.131816
0.131724
0.131632
0.131541
0.13145
0.131361
0.131272
0.131185
0.131098
0.131011
0.130926
0.130842
0.130758
0.130675
0.130593
0.130512
0.130432
0.130352
0.130273
0.130195
0.130118
0.130042
0.129966
0.129891
0.129817
0.129744
0.129672
0.1296
0.129529
0.129459
0.129389
0.129321
0.129253
0.129185
0.129119
0.129053
0.128988
0.128923
0.12886
0.128797
0.128734
0.128673
0.128612
0.128551
0.128492
0.128433
0.128374
0.128316
0.128259
0.128203
0.128147
0.128091
0.128037
0.127982
0.127929
0.127876
0.127823
0.127772
0.12772
0.12767
0.127619
0.12757
0.127521
0.127472
0.127424
0.127376
0.127329
0.127283
0.127237
0.127191
0.127146
0.127102
0.127058
0.127014
0.126971
0.126929
0.126886
0.126845
0.126803
0.126763
0.126722
0.126683
0.126643
0.126604
0.126566
0.126528
0.12649
0.126453
0.126416
0.126379
0.126343
0.126308
0.126273
0.126238
0.126204
0.12617
0.126137
0.126104
0.126071
0.126039
0.126007
0.125976
0.125945
0.125915
0.125885
0.125855
0.125826
0.125797
0.125769
0.125741
0.125714
0.125687
0.125661
0.125635
0.125609
0.125584
0.125559
0.125535
0.125511
0.125488
0.125465
0.125443
0.125421
0.1254
0.125379
0.125359
0.125339
0.12532
0.125302
0.125284
0.125266
0.125249
0.125232
0.125217
0.125201
0.125186
0.125172
0.125159
0.125146
0.125133
0.125121
0.12511
0.1251
0.12509
0.12508
0.125071
0.125063
0.125055
0.125048
0.125042
0.125036
0.12503
0.125026
0.125021
0.125018
0.125014
0.125011
0.125009
0.125007
0.125005
0.125004
0.125003
0.125002
0.125001
0.125001
0.125
0.125
0.125
0.1
0.100001
0.100006
0.100014
0.100026
0.100042
0.100061
0.100084
0.100111
0.100142
0.100176
0.100213
0.100255
0.1003
0.100349
0.100402
0.100459
0.100519
0.100584
0.100654
0.100727
0.100805
0.100888
0.100975
0.101067
0.101165
0.101267
0.101375
0.101487
0.101606
0.10173
0.10186
0.101995
0.102137
0.102285
0.102439
0.1026
0.102767
0.10294
0.103121
0.103309
0.103503
0.103706
0.103915
0.104132
0.104357
0.10459
0.104831
0.105081
0.105338
0.105605
0.10588
0.106163
0.106456
0.106758
0.107069
0.107389
0.107718
0.108057
0.108405
0.108762
0.109129
0.109505
0.10989
0.110284
0.110688
0.1111
0.111522
0.111951
0.11239
0.112836
0.113291
0.113753
0.114223
0.1147
0.115183
0.115673
0.116169
0.11667
0.117177
0.117688
0.118203
0.118721
0.119243
0.119767
0.120293
0.12082
0.121348
0.121876
0.122403
0.122929
0.123453
0.123975
0.124494
0.125009
0.125519
0.126025
0.126526
0.12702
0.127508
0.127988
0.128462
0.128927
0.129384
0.129831
0.13027
0.130699
0.131119
0.131528
0.131926
0.132314
0.132691
0.133057
0.133412
0.133756
0.134088
0.134409
0.134718
0.135016
0.135303
0.135578
0.135842
0.136094
0.136335
0.136566
0.136785
0.136993
0.13719
0.137377
0.137554
0.13772
0.137876
0.138023
0.138159
0.138286
0.138404
0.138513
0.138613
0.138704
0.138786
0.138861
0.138927
0.138986
0.139037
0.13908
0.139116
0.139146
0.139168
0.139184
0.139194
0.139198
0.139195
0.139187
0.139173
0.139154
0.13913
0.139101
0.139067
0.139029
0.138986
0.138939
0.138887
0.138832
0.138774
0.138711
0.138645
0.138576
0.138504
0.138429
0.138351
0.13827
0.138187
0.138102
0.138014
0.137924
0.137832
0.137738
0.137642
0.137545
0.137446
0.137345
0.137244
0.137141
0.137037
0.136931
0.136825
0.136718
0.13661
0.136501
0.136392
0.136282
0.136172
0.136061
0.13595
0.135839
0.135727
0.135616
0.135504
0.135392
0.13528
0.135168
0.135057
0.134945
0.134834
0.134723
0.134612
0.134502
0.134392
0.134282
0.134172
0.134064
0.133955
0.133847
0.13374
0.133633
0.133527
0.133422
0.133317
0.133212
0.133109
0.133006
0.132903
0.132802
0.132701
0.132601
0.132502
0.132403
0.132305
0.132208
0.132112
0.132017
0.131922
0.131829
0.131736
0.131643
0.131552
0.131462
0.131372
0.131283
0.131195
0.131108
0.131022
0.130936
0.130851
0.130767
0.130684
0.130602
0.130521
0.13044
0.13036
0.130281
0.130203
0.130126
0.130049
0.129973
0.129898
0.129824
0.12975
0.129677
0.129605
0.129534
0.129464
0.129394
0.129325
0.129257
0.129189
0.129122
0.129056
0.128991
0.128926
0.128862
0.128799
0.128736
0.128674
0.128613
0.128552
0.128492
0.128433
0.128374
0.128316
0.128258
0.128201
0.128145
0.128089
0.128034
0.12798
0.127926
0.127873
0.12782
0.127768
0.127716
0.127665
0.127614
0.127564
0.127515
0.127466
0.127417
0.127369
0.127322
0.127275
0.127229
0.127183
0.127137
0.127092
0.127048
0.127004
0.12696
0.126917
0.126875
0.126833
0.126791
0.12675
0.126709
0.126669
0.126629
0.126589
0.12655
0.126512
0.126474
0.126436
0.126399
0.126362
0.126325
0.126289
0.126254
0.126219
0.126184
0.12615
0.126116
0.126082
0.126049
0.126017
0.125984
0.125953
0.125921
0.12589
0.12586
0.12583
0.1258
0.125771
0.125742
0.125714
0.125686
0.125658
0.125631
0.125605
0.125578
0.125553
0.125528
0.125503
0.125479
0.125455
0.125431
0.125409
0.125386
0.125365
0.125343
0.125322
0.125302
0.125282
0.125263
0.125244
0.125226
0.125209
0.125192
0.125175
0.125159
0.125144
0.125129
0.125115
0.125101
0.125088
0.125076
0.125064
0.125053
0.125043
0.125033
0.125023
0.125014
0.125006
0.124999
0.124992
0.124985
0.12498
0.124974
0.12497
0.124965
0.124962
0.124958
0.124956
0.124953
0.124951
0.12495
0.124948
0.124947
0.124947
0.124946
0.124945
0.124945
0.124945
0.1
0.100001
0.100006
0.100014
0.100026
0.100041
0.100061
0.100084
0.10011
0.10014
0.100174
0.100211
0.100252
0.100297
0.100346
0.100398
0.100454
0.100515
0.100579
0.100648
0.100721
0.100798
0.10088
0.100967
0.101058
0.101155
0.101256
0.101363
0.101475
0.101593
0.101716
0.101845
0.10198
0.10212
0.102267
0.102421
0.10258
0.102746
0.102919
0.103099
0.103286
0.10348
0.103681
0.10389
0.104106
0.10433
0.104562
0.104803
0.105052
0.105309
0.105575
0.105849
0.106133
0.106425
0.106727
0.107038
0.107358
0.107688
0.108027
0.108375
0.108733
0.1091
0.109477
0.109863
0.110259
0.110664
0.111078
0.111501
0.111933
0.112373
0.112822
0.113279
0.113744
0.114216
0.114696
0.115182
0.115675
0.116175
0.116679
0.117189
0.117704
0.118223
0.118746
0.119271
0.1198
0.12033
0.120861
0.121393
0.121925
0.122456
0.122987
0.123515
0.124041
0.124563
0.125082
0.125597
0.126106
0.12661
0.127107
0.127598
0.128082
0.128558
0.129026
0.129485
0.129935
0.130376
0.130807
0.131227
0.131638
0.132038
0.132427
0.132805
0.133171
0.133527
0.133871
0.134203
0.134524
0.134833
0.135131
0.135417
0.135691
0.135954
0.136206
0.136446
0.136675
0.136893
0.1371
0.137296
0.137482
0.137657
0.137822
0.137977
0.138122
0.138257
0.138382
0.138499
0.138606
0.138704
0.138794
0.138875
0.138947
0.139012
0.139069
0.139118
0.13916
0.139195
0.139223
0.139244
0.139259
0.139267
0.139269
0.139265
0.139255
0.13924
0.13922
0.139194
0.139164
0.139129
0.139089