# vtk DataFile Version 3.0
LBM Fluid Grid
ASCII
DATASET STRUCTURED_POINTS
DIMENSIONS 400 150 1
ORIGIN 0 0 0
SPACING 1 1 1
POINT_DATA 60000
SCALARS VelocityMagnitude double 1
LOOKUP_TABLE default
0.1
0.100007
0.100018
0.100032
0.10005
0.100071
0.100096
0.100123
0.100153
0.100187
0.100223
0.100263
0.100306
0.100352
0.100402
0.100456
0.100514
0.100576
0.100642
0.100713
0.100789
0.10087
0.100956
0.101047
0.101143
0.101244
0.101351
0.101463
0.101581
0.101705
0.101834
0.101968
0.102108
0.102254
0.102406
0.102564
0.102728
0.102898
0.103074
0.103257
0.103446
0.103643
0.103847
0.104058
0.104276
0.104502
0.104736
0.104978
0.105228
0.105487
0.105754
0.10603
0.106314
0.106607
0.106909
0.107219
0.107539
0.107867
0.108205
0.108551
0.108906
0.109269
0.109642
0.110023
0.110412
0.11081
0.111217
0.111631
0.112053
0.112484
0.112921
0.113367
0.113819
0.114278
0.114744
0.115217
0.115695
0.116178
0.116667
0.117161
0.117659
0.118161
0.118666
0.119174
0.119684
0.120197
0.12071
0.121224
0.121738
0.122252
0.122764
0.123275
0.123783
0.124289
0.124791
0.125289
0.125783
0.126272
0.126755
0.127232
0.127702
0.128166
0.128622
0.12907
0.12951
0.129941
0.130364
0.130777
0.131181
0.131575
0.131959
0.132333
0.132697
0.13305
0.133392
0.133724
0.134045
0.134355
0.134653
0.134941
0.135218
0.135485
0.13574
0.135984
0.136217
0.13644
0.136652
0.136854
0.137045
0.137226
0.137396
0.137557
0.137708
0.13785
0.137981
0.138104
0.138218
0.138322
0.138418
0.138506
0.138585
0.138657
0.13872
0.138776
0.138825
0.138866
0.1389
0.138928
0.138949
0.138964
0.138972
0.138975
0.138971
0.138963
0.138948
0.138929
0.138905
0.138876
0.138842
0.138803
0.138761
0.138714
0.138663
0.138608
0.13855
0.138488
0.138423
0.138355
0.138283
0.138209
0.138132
0.138052
0.13797
0.137885
0.137799
0.13771
0.137619
0.137526
0.137431
0.137335
0.137238
0.137138
0.137038
0.136936
0.136834
0.13673
0.136625
0.13652
0.136414
0.136307
0.136199
0.136091
0.135983
0.135874
0.135764
0.135655
0.135545
0.135435
0.135325
0.135215
0.135105
0.134995
0.134886
0.134776
0.134666
0.134557
0.134448
0.134339
0.134231
0.134123
0.134015
0.133908
0.133802
0.133695
0.13359
0.133485
0.13338
0.133276
0.133173
0.133071
0.132969
0.132868
0.132767
0.132667
0.132568
0.13247
0.132372
0.132276
0.13218
0.132084
0.13199
0.131896
0.131804
0.131712
0.13162
0.13153
0.13144
0.131351
0.131264
0.131176
0.13109
0.131004
0.13092
0.130836
0.130753
0.13067
0.130589
0.130508
0.130428
0.130349
0.130271
0.130193
0.130117
0.130041
0.129966
0.129892
0.129818
0.129745
0.129673
0.129602
0.129532
0.129462
0.129393
0.129325
0.129258
0.129191
0.129125
0.12906
0.128995
0.128931
0.128868
0.128806
0.128744
0.128683
0.128623
0.128563
0.128504
0.128445
0.128387
0.12833
0.128274
0.128218
0.128162
0.128108
0.128053
0.128
0.127947
0.127895
0.127843
0.127792
0.127741
0.127691
0.127642
0.127593
0.127545
0.127497
0.12745
0.127403
0.127357
0.127311
0.127266
0.127221
0.127177
0.127134
0.12709
0.127048
0.127006
0.126964
0.126923
0.126882
0.126842
0.126802
0.126763
0.126724
0.126686
0.126648
0.126611
0.126574
0.126537
0.126501
0.126466
0.126431
0.126396
0.126362
0.126328
0.126295
0.126262
0.126229
0.126197
0.126166
0.126135
0.126104
0.126074
0.126044
0.126015
0.125986
0.125957
0.125929
0.125902
0.125875
0.125848
0.125822
0.125796
0.125771
0.125746
0.125722
0.125698
0.125674
0.125651
0.125629
0.125607
0.125586
0.125565
0.125544
0.125524
0.125505
0.125486
0.125467
0.125449
0.125432
0.125415
0.125399
0.125383
0.125368
0.125353
0.125339
0.125325
0.125313
0.1253
0.125288
0.125277
0.125266
0.125256
0.125247
0.125238
0.125229
0.125221
0.125214
0.125207
0.125201
0.125196
0.12519
0.125186
0.125182
0.125178
0.125175
0.125172
0.12517
0.125168
0.125167
0.125165
0.125165
0.125164
0.125163
0.125163
0.125163
0.125162
0.125162
0.125161
0.125161
0.1
0.100007
0.100018
0.100032
0.10005
0.100071
0.100096
0.100123
0.100153
0.100187
0.100223
0.100263
0.100306
0.100352
0.100402
0.100456
0.100514
0.100576
0.100643
0.100714
0.10079
0.10087
0.100956
0.101047
0.101143
0.101245
0.101352
0.101464
0.101582
0.101706
0.101835
0.101969
0.102109
0.102255
0.102407
0.102565
0.102729
0.102899
0.103075
0.103258
0.103448
0.103645
0.103848
0.104059
0.104278
0.104504
0.104738
0.10498
0.10523
0.105489
0.105756
0.106032
0.106316
0.106609
0.106911
0.107221
0.107541
0.107869
0.108207
0.108553
0.108908
0.109271
0.109644
0.110025
0.110414
0.110812
0.111218
0.111632
0.112055
0.112485
0.112922
0.113367
0.11382
0.114279
0.114745
0.115217
0.115694
0.116178
0.116667
0.11716
0.117658
0.118159
0.118664
0.119172
0.119682
0.120194
0.120707
0.121221
0.121735
0.122248
0.12276
0.123271
0.123779
0.124284
0.124786
0.125284
0.125778
0.126266
0.126749
0.127226
0.127696
0.128159
0.128615
0.129063
0.129503
0.129934
0.130357
0.13077
0.131174
0.131568
0.131952
0.132326
0.132689
0.133042
0.133385
0.133716
0.134037
0.134347
0.134646
0.134934
0.135211
0.135477
0.135732
0.135977
0.13621
0.136433
0.136645
0.136847
0.137038
0.137219
0.13739
0.13755
0.137702
0.137843
0.137975
0.138098
0.138211
0.138316
0.138412
0.1385
0.13858
0.138651
0.138715
0.138771
0.138819
0.138861
0.138895
0.138923
0.138944
0.138959
0.138967
0.13897
0.138967
0.138958
0.138944
0.138925
0.1389
0.138871
0.138838
0.138799
0.138757
0.13871
0.138659
0.138605
0.138547
0.138485
0.13842
0.138352
0.13828
0.138206
0.138129
0.138049
0.137967
0.137883
0.137796
0.137707
0.137616
0.137523
0.137429
0.137333
0.137235
0.137136
0.137036
0.136934
0.136831
0.136728
0.136623
0.136518
0.136411
0.136305
0.136197
0.136089
0.135981
0.135872
0.135762
0.135653
0.135543
0.135434
0.135324
0.135214
0.135104
0.134994
0.134884
0.134774
0.134665
0.134556
0.134447
0.134338
0.13423
0.134122
0.134014
0.133907
0.1338
0.133694
0.133588
0.133483
0.133379
0.133275
0.133172
0.133069
0.132968
0.132866
0.132766
0.132666
0.132567
0.132469
0.132371
0.132275
0.132179
0.132083
0.131989
0.131895
0.131803
0.131711
0.131619
0.131529
0.131439
0.131351
0.131263
0.131175
0.131089
0.131003
0.130919
0.130835
0.130752
0.130669
0.130588
0.130507
0.130427
0.130348
0.13027
0.130193
0.130116
0.13004
0.129965
0.129891
0.129817
0.129745
0.129673
0.129602
0.129531
0.129462
0.129393
0.129325
0.129257
0.12919
0.129125
0.129059
0.128995
0.128931
0.128868
0.128805
0.128744
0.128683
0.128622
0.128562
0.128503
0.128445
0.128387
0.12833
0.128273
0.128217
0.128162
0.128107
0.128053
0.128
0.127947
0.127895
0.127843
0.127792
0.127741
0.127691
0.127642
0.127593
0.127545
0.127497
0.12745
0.127403
0.127357
0.127311
0.127266
0.127222
0.127178
0.127134
0.127091
0.127048
0.127006
0.126965
0.126924
0.126883
0.126843
0.126803
0.126764
0.126725
0.126687
0.126649
0.126612
0.126575
0.126538
0.126502
0.126467
0.126432
0.126397
0.126363
0.126329
0.126296
0.126263
0.12623
0.126198
0.126167
0.126136
0.126105
0.126075
0.126045
0.126016
0.125987
0.125959
0.125931
0.125903
0.125876
0.12585
0.125823
0.125798
0.125773
0.125748
0.125723
0.1257
0.125676
0.125653
0.125631
0.125609
0.125588
0.125567
0.125546
0.125526
0.125507
0.125488
0.12547
0.125452
0.125434
0.125418
0.125401
0.125386
0.12537
0.125356
0.125342
0.125328
0.125315
0.125303
0.125291
0.12528
0.125269
0.125259
0.12525
0.125241
0.125232
0.125224
0.125217
0.125211
0.125204
0.125199
0.125194
0.125189
0.125185
0.125182
0.125179
0.125176
0.125174
0.125172
0.12517
0.125169
0.125168
0.125167
0.125167
0.125167
0.125166
0.125166
0.125166
0.125165
0.125165
0.1
0.100007
0.100018
0.100032
0.10005
0.100071
0.100096
0.100123
0.100153
0.100187
0.100223
0.100263
0.100306
0.100352
0.100402
0.100456
0.100514
0.100576
0.100642
0.100713
0.100789
0.10087
0.100956
0.101047
0.101143
0.101244
0.101351
0.101463
0.101581
0.101705
0.101834
0.101968
0.102108
0.102254
0.102406
0.102564
0.102728
0.102898
0.103074
0.103257
0.103446
0.103643
0.103847
0.104058
0.104276
0.104502
0.104736
0.104978
0.105228
0.105487
0.105754
0.10603
0.106314
0.106607
0.106909
0.107219
0.107539
0.107867
0.108205
0.108551
0.108906
0.109269
0.109642
0.110023
0.110412
0.11081
0.111217
0.111631
0.112053
0.112484
0.112921
0.113367
0.113819
0.114278
0.114744
0.115217
0.115695
0.116178
0.116667
0.117161
0.117659
0.118161
0.118666
0.119174
0.119684
0.120197
0.12071
0.121224
0.121738
0.122252
0.122764
0.123275
0.123783
0.124289
0.124791
0.125289
0.125783
0.126272
0.126755
0.127232
0.127702
0.128166
0.128622
0.12907
0.12951
0.129941
0.130364
0.130777
0.131181
0.131575
0.131959
0.132333
0.132697
0.13305
0.133392
0.133724
0.134045
0.134355
0.134653
0.134941
0.135218
0.135485
0.13574
0.135984
0.136217
0.13644
0.136652
0.136854
0.137045
0.137226
0.137396
0.137557
0.137708
0.13785
0.137981
0.138104
0.138218
0.138322
0.138418
0.138506
0.138585
0.138657
0.13872
0.138776
0.138825
0.138866
0.1389
0.138928
0.138949
0.138964
0.138972
0.138975
0.138971
0.138963
0.138948
0.138929
0.138905
0.138876
0.138842
0.138803
0.138761
0.138714
0.138663
0.138608
0.13855
0.138488
0.138423
0.138355
0.138283
0.138209
0.138132
0.138052
0.13797
0.137885
0.137799
0.13771
0.137619
0.137526
0.137431
0.137335
0.137238
0.137138
0.137038
0.136936
0.136834
0.13673
0.136625
0.13652
0.136414
0.136307
0.136199
0.136091
0.135983
0.135874
0.135764
0.135655
0.135545
0.135435
0.135325
0.135215
0.135105
0.134995
0.134886
0.134776
0.134666
0.134557
0.134448
0.134339
0.134231
0.134123
0.134015
0.133908
0.133802
0.133695
0.13359
0.133485
0.13338
0.133276
0.133173
0.133071
0.132969
0.132868
0.132767
0.132667
0.132568
0.13247
0.132372
0.132276
0.13218
0.132084
0.13199
0.131896
0.131804
0.131712
0.13162
0.13153
0.13144
0.131351
0.131264
0.131176
0.13109
0.131004
0.13092
0.130836
0.130753
0.13067
0.130589
0.130508
0.130428
0.130349
0.130271
0.130193
0.130117
0.130041
0.129966
0.129892
0.129818
0.129745
0.129673
0.129602
0.129532
0.129462
0.129393
0.129325
0.129258
0.129191
0.129125
0.12906
0.128995
0.128931
0.128868
0.128806
0.128744
0.128683
0.128623
0.128563
0.128504
0.128445
0.128387
0.12833
0.128274
0.128218
0.128162
0.128108
0.128053
0.128
0.127947
0.127895
0.127843
0.127792
0.127741
0.127691
0.127642
0.127593
0.127545
0.127497
0.12745
0.127403
0.127357
0.127311
0.127266
0.127221
0.127177
0.127134
0.127091
0.127048
0.127006
0.126964
0.126923
0.126882
0.126842
0.126802
0.126763
0.126724
0.126686
0.126648
0.126611
0.126574
0.126537
0.126501
0.126466
0.126431
0.126396
0.126362
0.126328
0.126295
0.126262
0.126229
0.126197
0.126166
0.126135
0.126104
0.126074
0.126044
0.126015
0.125986
0.125957
0.125929
0.125902
0.125875
0.125848
0.125822
0.125796
0.125771
0.125746
0.125722
0.125698
0.125674
0.125651
0.125629
0.125607
0.125586
0.125565
0.125544
0.125524
0.125505
0.125486
0.125467
0.125449
0.125432
0.125415
0.125399
0.125383
0.125368
0.125353
0.125339
0.125325
0.125312
0.1253
0.125288
0.125277
0.125266
0.125256
0.125247
0.125238
0.125229
0.125221
0.125214
0.125207
0.125201
0.125195
0.12519
0.125186
0.125182
0.125178
0.125175
0.125172
0.12517
0.125168
0.125167
0.125165
0.125164
0.125164
0.125163
0.125163
0.125163
0.125162
0.125162
0.125161
0.125161
0.1
0.100007
0.100018
0.100032
0.10005
0.100071
0.100095
0.100123
0.100153
0.100186
0.100223
0.100262
0.100305
0.100352
0.100402
0.100455
0.100513
0.100575
0.100641
0.100712
0.100788
0.100868
0.100954
0.101045
0.101141
0.101242
0.101349
0.101461
0.101579
0.101702
0.101831
0.101965
0.102105
0.102251
0.102402
0.10256
0.102724
0.102893
0.10307
0.103252
0.103442
0.103638
0.103842
0.104052
0.104271
0.104497
0.104731
0.104972
0.105223
0.105481
0.105748
0.106024
0.106308
0.106601
0.106903
0.107213
0.107533
0.107861
0.108199
0.108545
0.1089
0.109264
0.109637
0.110018
0.110408
0.110806
0.111212
0.111627
0.11205
0.11248
0.112919
0.113364
0.113817
0.114277
0.114744
0.115216
0.115695
0.11618
0.116669
0.117164
0.117662
0.118165
0.118671
0.11918
0.119691
0.120204
0.120718
0.121233
0.121748
0.122262
0.122775
0.123287
0.123796
0.124303
0.124806
0.125305
0.125799
0.126288
0.126772
0.127249
0.127721
0.128185
0.128641
0.12909
0.12953
0.129962
0.130385
0.130799
0.131203
0.131597
0.131981
0.132355
0.132719
0.133072
0.133415
0.133746
0.134067
0.134377
0.134676
0.134964
0.135241
0.135507
0.135762
0.136006
0.136239
0.136462
0.136673
0.136875
0.137066
0.137246
0.137417
0.137577
0.137728
0.137869
0.138001
0.138123
0.138236
0.138341
0.138436
0.138524
0.138603
0.138674
0.138737
0.138793
0.138841
0.138882
0.138916
0.138943
0.138964
0.138978
0.138986
0.138989
0.138985
0.138976
0.138962
0.138942
0.138917
0.138888
0.138854
0.138815
0.138772
0.138725
0.138674
0.138619
0.138561
0.138499
0.138433
0.138365
0.138293
0.138219
0.138141
0.138062
0.137979
0.137894
0.137807
0.137718
0.137627
0.137534
0.137439
0.137343
0.137245
0.137146
0.137045
0.136944
0.136841
0.136737
0.136632
0.136526
0.13642
0.136313
0.136205
0.136097
0.135989
0.13588
0.13577
0.135661
0.135551
0.135441
0.135331
0.135221
0.135111
0.135001
0.134891
0.134781
0.134671
0.134562
0.134453
0.134344
0.134236
0.134128
0.13402
0.133913
0.133806
0.1337
0.133594
0.133489
0.133384
0.13328
0.133177
0.133075
0.132973
0.132871
0.132771
0.132671
0.132572
0.132474
0.132376
0.132279
0.132183
0.132088
0.131993
0.1319
0.131807
0.131715
0.131623
0.131533
0.131443
0.131354
0.131266
0.131179
0.131093
0.131007
0.130922
0.130838
0.130755
0.130673
0.130591
0.130511
0.130431
0.130352
0.130273
0.130196
0.130119
0.130043
0.129968
0.129894
0.12982
0.129747
0.129675
0.129604
0.129534
0.129464
0.129395
0.129327
0.129259
0.129193
0.129127
0.129061
0.128997
0.128933
0.12887
0.128807
0.128745
0.128684
0.128624
0.128564
0.128505
0.128446
0.128388
0.128331
0.128274
0.128218
0.128163
0.128108
0.128054
0.128
0.127947
0.127895
0.127843
0.127792
0.127741
0.127691
0.127642
0.127593
0.127544
0.127496
0.127449
0.127402
0.127356
0.12731
0.127265
0.12722
0.127176
0.127132
0.127089
0.127047
0.127004
0.126963
0.126921
0.126881
0.12684
0.1268
0.126761
0.126722
0.126684
0.126646
0.126608
0.126571
0.126535
0.126499
0.126463
0.126428
0.126393
0.126359
0.126325
0.126291
0.126258
0.126226
0.126194
0.126162
0.126131
0.1261
0.12607
0.12604
0.12601
0.125981
0.125953
0.125925
0.125897
0.12587
0.125843
0.125817
0.125791
0.125765
0.12574
0.125716
0.125692
0.125668
0.125645
0.125623
0.125601
0.125579
0.125558
0.125537
0.125517
0.125498
0.125479
0.12546
0.125442
0.125424
0.125408
0.125391
0.125375
0.12536
0.125345
0.125331
0.125317
0.125304
0.125291
0.125279
0.125268
0.125257
0.125247
0.125237
0.125228
0.12522
0.125212
0.125204
0.125197
0.125191
0.125185
0.12518
0.125176
0.125171
0.125168
0.125164
0.125162
0.125159
0.125157
0.125156
0.125154
0.125153
0.125153
0.125152
0.125152
0.125151
0.125151
0.125151
0.12515
0.12515
0.1
0.100007
0.100018
0.100032
0.10005
0.100071
0.100095
0.100122
0.100153
0.100186
0.100222
0.100262
0.100304
0.100351
0.1004
0.100454
0.100511
0.100573
0.100639
0.10071
0.100785
0.100866
0.100951
0.101042
0.101138
0.101239
0.101345
0.101457
0.101575
0.101697
0.101826
0.10196
0.1021
0.102245
0.102396
0.102554
0.102717
0.102887
0.103062
0.103245
0.103434
0.10363
0.103833
0.104044
0.104262
0.104488
0.104721
0.104963
0.105213
0.105471
0.105738
0.106014
0.106298
0.106591
0.106892
0.107203
0.107523
0.107851
0.108189
0.108535
0.108891
0.109255
0.109628
0.110009
0.110399
0.110798
0.111205
0.11162
0.112044
0.112475
0.112914
0.113361
0.113814
0.114275
0.114743
0.115216
0.115696
0.116182
0.116673
0.117168
0.117668
0.118172
0.118679
0.119189
0.119702
0.120216
0.120732
0.121248
0.121764
0.12228
0.122794
0.123307
0.123818
0.124325
0.12483
0.12533
0.125825
0.126316
0.126801
0.127279
0.127751
0.128216
0.128674
0.129123
0.129564
0.129997
0.13042
0.130834
0.131239
0.131634
0.132018
0.132393
0.132757
0.13311
0.133453
0.133784
0.134105
0.134415
0.134714
0.135002
0.135278
0.135544
0.135799
0.136043
0.136275
0.136498
0.136709
0.13691
0.1371
0.137281
0.137451
0.137611
0.137761
0.137902
0.138033
0.138155
0.138267
0.138371
0.138466
0.138553
0.138632
0.138702
0.138765
0.13882
0.138868
0.138908
0.138942
0.138969
0.138989
0.139003
0.13901
0.139012
0.139008
0.138999
0.138984
0.138964
0.138939
0.138909
0.138874
0.138835
0.138792
0.138744
0.138693
0.138638
0.138579
0.138516
0.138451
0.138382
0.13831
0.138235
0.138157
0.138077
0.137994
0.137909
0.137822
0.137732
0.137641
0.137548
0.137453
0.137356
0.137258
0.137158
0.137058
0.136956
0.136852
0.136748
0.136643
0.136537
0.136431
0.136324
0.136216
0.136107
0.135999
0.135889
0.13578
0.13567
0.13556
0.13545
0.13534
0.135229
0.135119
0.135009
0.134899
0.134789
0.134679
0.13457
0.134461
0.134352
0.134243
0.134135
0.134027
0.13392
0.133813
0.133707
0.133601
0.133496
0.133391
0.133287
0.133184
0.133081
0.132979
0.132878
0.132777
0.132677
0.132578
0.132479
0.132382
0.132285
0.132189
0.132093
0.131999
0.131905
0.131812
0.13172
0.131629
0.131538
0.131448
0.131359
0.131271
0.131184
0.131097
0.131012
0.130927
0.130843
0.13076
0.130677
0.130595
0.130515
0.130435
0.130355
0.130277
0.130199
0.130123
0.130047
0.129971
0.129897
0.129823
0.129751
0.129678
0.129607
0.129537
0.129467
0.129398
0.129329
0.129262
0.129195
0.129129
0.129064
0.128999
0.128935
0.128872
0.128809
0.128747
0.128686
0.128625
0.128565
0.128506
0.128447
0.128389
0.128332
0.128275
0.128219
0.128163
0.128109
0.128054
0.128001
0.127947
0.127895
0.127843
0.127792
0.127741
0.127691
0.127641
0.127592
0.127543
0.127495
0.127448
0.127401
0.127355
0.127309
0.127263
0.127218
0.127174
0.12713
0.127087
0.127044
0.127002
0.12696
0.126918
0.126877
0.126837
0.126797
0.126758
0.126718
0.12668
0.126642
0.126604
0.126567
0.12653
0.126494
0.126458
0.126423
0.126388
0.126353
0.126319
0.126285
0.126252
0.12622
0.126187
0.126155
0.126124
0.126093
0.126062
0.126032
0.126003
0.125974
0.125945
0.125916
0.125889
0.125861
0.125834
0.125808
0.125782
0.125756
0.125731
0.125706
0.125682
0.125658
0.125635
0.125612
0.12559
0.125568
0.125547
0.125526
0.125506
0.125486
0.125467
0.125448
0.12543
0.125412
0.125395
0.125378
0.125362
0.125346
0.125331
0.125317
0.125303
0.12529
0.125277
0.125265
0.125253
0.125242
0.125232
0.125222
0.125212
0.125204
0.125195
0.125188
0.125181
0.125174
0.125168
0.125163
0.125158
0.125154
0.12515
0.125147
0.125144
0.125141
0.125139
0.125137
0.125136
0.125135
0.125134
0.125133
0.125133
0.125132
0.125132
0.125132
0.125131
0.125131
0.1
0.100007
0.100018
0.100032
0.10005
0.100071
0.100095
0.100122
0.100152
0.100185
0.100221
0.100261
0.100303
0.100349
0.100399
0.100452
0.100509
0.100571
0.100637
0.100707
0.100782
0.100862
0.100948
0.101038
0.101133
0.101234
0.10134
0.101452
0.101569
0.101691
0.101819
0.101953
0.102092
0.102237
0.102388
0.102545
0.102708
0.102877
0.103052
0.103234
0.103423
0.103619
0.103822
0.104032
0.10425
0.104475
0.104708
0.10495
0.1052
0.105458
0.105724
0.106
0.106284
0.106576
0.106878
0.107189
0.107509
0.107837
0.108175
0.108522
0.108877
0.109242
0.109615
0.109997
0.110388
0.110787
0.111195
0.111611
0.112035
0.112468
0.112908
0.113355
0.11381
0.114272
0.114741
0.115216
0.115698
0.116185
0.116677
0.117174
0.117676
0.118182
0.118691
0.119203
0.119717
0.120233
0.120751
0.121269
0.121787
0.122305
0.122821
0.123336
0.123848
0.124358
0.124863
0.125365
0.125862
0.126354
0.126841
0.127321
0.127794
0.12826
0.128719
0.12917
0.129612
0.130045
0.13047
0.130884
0.13129
0.131685
0.13207
0.132445
0.132809
0.133163
0.133506
0.133837
0.134158
0.134468
0.134767
0.135054
0.135331
0.135596
0.135851
0.136094
0.136326
0.136548
0.136759
0.136959
0.137149
0.137329
0.137498
0.137658
0.137807
0.137947
0.138077
0.138199
0.138311
0.138414
0.138508
0.138594
0.138672
0.138742
0.138804
0.138858
0.138905
0.138945
0.138978
0.139004
0.139024
0.139037
0.139044
0.139045
0.13904
0.13903
0.139014
0.138994
0.138968
0.138937
0.138902
0.138863
0.138819
0.138771
0.138719
0.138663
0.138604
0.138541
0.138474
0.138405
0.138332
0.138257
0.138179
0.138098
0.138015
0.137929
0.137842
0.137752
0.13766
0.137566
0.137471
0.137374
0.137276
0.137176
0.137074
0.136972
0.136869
0.136764
0.136659
0.136553
0.136446
0.136338
0.13623
0.136122
0.136012
0.135903
0.135793
0.135683
0.135573
0.135463
0.135352
0.135242
0.135131
0.135021
0.134911
0.1348
0.134691
0.134581
0.134471
0.134362
0.134254
0.134145
0.134037
0.13393
0.133823
0.133716
0.13361
0.133505
0.1334
0.133296
0.133193
0.13309
0.132988
0.132886
0.132785
0.132685
0.132586
0.132487
0.13239
0.132293
0.132196
0.132101
0.132006
0.131912
0.131819
0.131727
0.131635
0.131545
0.131455
0.131366
0.131278
0.13119
0.131104
0.131018
0.130933
0.130849
0.130765
0.130683
0.130601
0.13052
0.13044
0.130361
0.130282
0.130204
0.130128
0.130051
0.129976
0.129902
0.129828
0.129755
0.129683
0.129611
0.129541
0.129471
0.129401
0.129333
0.129265
0.129198
0.129132
0.129067
0.129002
0.128938
0.128874
0.128811
0.128749
0.128688
0.128627
0.128567
0.128507
0.128449
0.12839
0.128333
0.128276
0.12822
0.128164
0.128109
0.128055
0.128001
0.127947
0.127895
0.127843
0.127791
0.12774
0.12769
0.12764
0.127591
0.127542
0.127494
0.127446
0.127399
0.127352
0.127306
0.127261
0.127215
0.127171
0.127127
0.127083
0.12704
0.126998
0.126956
0.126914
0.126873
0.126832
0.126792
0.126752
0.126713
0.126674
0.126636
0.126598
0.12656
0.126523
0.126487
0.126451
0.126415
0.12638
0.126345
0.126311
0.126277
0.126243
0.12621
0.126178
0.126146
0.126114
0.126083
0.126052
0.126022
0.125992
0.125962
0.125933
0.125905
0.125877
0.125849
0.125822
0.125795
0.125768
0.125743
0.125717
0.125692
0.125668
0.125644
0.12562
0.125597
0.125574
0.125552
0.125531
0.12551
0.125489
0.125469
0.125449
0.12543
0.125412
0.125394
0.125376
0.125359
0.125343
0.125327
0.125312
0.125297
0.125283
0.125269
0.125256
0.125243
0.125232
0.12522
0.125209
0.125199
0.12519
0.125181
0.125172
0.125164
0.125157
0.12515
0.125144
0.125138
0.125133
0.125129
0.125125
0.125121
0.125118
0.125115
0.125113
0.125111
0.125109
0.125108
0.125107
0.125106
0.125106
0.125105
0.125105
0.125104
0.125104
0.125104
0.1
0.100007
0.100018
0.100032
0.100049
0.10007
0.100094
0.100121
0.100151
0.100184
0.10022
0.100259
0.100301
0.100347
0.100396
0.10045
0.100507
0.100568
0.100633
0.100703
0.100778
0.100858
0.100943
0.101033
0.101128
0.101228
0.101333
0.101445
0.101561
0.101683
0.101811
0.101944
0.102082
0.102227
0.102377
0.102534
0.102696
0.102864
0.103039
0.103221
0.103409
0.103604
0.103807
0.104016
0.104234
0.104459
0.104692
0.104933
0.105182
0.10544
0.105706
0.105981
0.106265
0.106558
0.10686
0.10717
0.10749
0.107819
0.108157
0.108504
0.10886
0.109225
0.109599
0.109981
0.110373
0.110773
0.111182
0.111599
0.112024
0.112458
0.112899
0.113348
0.113805
0.114268
0.114739
0.115216
0.115699
0.116188
0.116683
0.117182
0.117686
0.118194
0.118705
0.11922
0.119737
0.120255
0.120775
0.121296
0.121816
0.122336
0.122855
0.123372
0.123887
0.124399
0.124907
0.125411
0.12591
0.126404
0.126892
0.127374
0.12785
0.128317
0.128778
0.12923
0.129673
0.130108
0.130533
0.130949
0.131355
0.131751
0.132137
0.132512
0.132877
0.133231
0.133574
0.133906
0.134227
0.134536
0.134835
0.135122
0.135398
0.135663
0.135917
0.13616
0.136392
0.136613
0.136823
0.137023
0.137212
0.137391
0.137559
0.137718
0.137866
0.138005
0.138135
0.138255
0.138366
0.138469
0.138562
0.138647
0.138724
0.138793
0.138854
0.138908
0.138954
0.138993
0.139024
0.13905
0.139068
0.139081
0.139087
0.139087
0.139081
0.13907
0.139054
0.139032
0.139006
0.138975
0.138939
0.138898
0.138854
0.138805
0.138752
0.138696
0.138635
0.138572
0.138505
0.138435
0.138362
0.138286
0.138207
0.138126
0.138042
0.137956
0.137867
0.137777
0.137685
0.13759
0.137495
0.137397
0.137298
0.137198
0.137096
0.136993
0.13689
0.136785
0.136679
0.136572
0.136465
0.136357
0.136249
0.13614
0.13603
0.13592
0.13581
0.1357
0.135589
0.135479
0.135368
0.135257
0.135147
0.135036
0.134925
0.134815
0.134705
0.134595
0.134485
0.134376
0.134267
0.134158
0.13405
0.133942
0.133835
0.133729
0.133622
0.133517
0.133412
0.133308
0.133204
0.133101
0.132998
0.132897
0.132796
0.132696
0.132596
0.132498
0.1324
0.132302
0.132206
0.13211
0.132016
0.131921
0.131828
0.131736
0.131644
0.131553
0.131463
0.131374
0.131286
0.131198
0.131111
0.131026
0.13094
0.130856
0.130773
0.13069
0.130608
0.130527
0.130447
0.130367
0.130288
0.130211
0.130133
0.130057
0.129982
0.129907
0.129833
0.12976
0.129688
0.129616
0.129545
0.129475
0.129406
0.129337
0.129269
0.129202
0.129136
0.12907
0.129005
0.12894
0.128877
0.128814
0.128752
0.12869
0.128629
0.128569
0.128509
0.12845
0.128392
0.128334
0.128277
0.12822
0.128164
0.128109
0.128054
0.128
0.127947
0.127894
0.127841
0.12779
0.127738
0.127688
0.127638
0.127588
0.127539
0.127491
0.127443
0.127395
0.127348
0.127302
0.127256
0.127211
0.127166
0.127122
0.127078
0.127035
0.126992
0.126949
0.126907
0.126866
0.126825
0.126785
0.126744
0.126705
0.126666
0.126627
0.126589
0.126551
0.126514
0.126477
0.126441
0.126405
0.126369
0.126334
0.126299
0.126265
0.126231
0.126198
0.126165
0.126133
0.126101
0.126069
0.126038
0.126007
0.125977
0.125947
0.125918
0.125889
0.12586
0.125832
0.125805
0.125778
0.125751
0.125725
0.125699
0.125673
0.125649
0.125624
0.1256
0.125577
0.125554
0.125531
0.125509
0.125488
0.125467
0.125446
0.125426
0.125407
0.125388
0.125369
0.125352
0.125334
0.125317
0.125301
0.125285
0.12527
0.125256
0.125242
0.125228
0.125215
0.125203
0.125191
0.12518
0.12517
0.12516
0.12515
0.125141
0.125133
0.125126
0.125118
0.125112
0.125106
0.125101
0.125096
0.125091
0.125087
0.125084
0.125081
0.125079
0.125076
0.125075
0.125073
0.125072
0.125071
0.12507
0.12507
0.125069
0.125069
0.125068
0.125068
0.1
0.100007
0.100017
0.100032
0.100049
0.10007
0.100093
0.10012
0.10015
0.100183
0.100219
0.100257
0.100299
0.100345
0.100394
0.100447
0.100503
0.100564
0.100629
0.100699
0.100773
0.100853
0.100937
0.101026
0.101121
0.10122
0.101325
0.101436
0.101552
0.101673
0.1018
0.101932
0.10207
0.102214
0.102364
0.10252
0.102681
0.102849
0.103024
0.103204
0.103392
0.103587
0.103788
0.103998
0.104214
0.104439
0.104671
0.104912
0.105161
0.105418
0.105684
0.105959
0.106243
0.106535
0.106837
0.107148
0.107468
0.107797
0.108135
0.108482
0.108838
0.109204
0.109578
0.109962
0.110354
0.110755
0.111165
0.111584
0.11201
0.112445
0.112888
0.113339
0.113798
0.114263
0.114736
0.115215
0.115701
0.116192
0.116689
0.117192
0.117698
0.118209
0.118723
0.11924
0.11976
0.120282
0.120805
0.121328
0.121852
0.122375
0.122897
0.123417
0.123935
0.124449
0.12496
0.125467
0.125969
0.126465
0.126956
0.12744
0.127917
0.128387
0.128849
0.129303
0.129748
0.130184
0.130611
0.131028
0.131435
0.131832
0.132219
0.132595
0.13296
0.133314
0.133657
0.133989
0.13431
0.13462
0.134918
0.135205
0.135481
0.135745
0.135998
0.136241
0.136472
0.136692
0.136901
0.1371
0.137288
0.137466
0.137634
0.137791
0.137939
0.138077
0.138205
0.138324
0.138434
0.138536
0.138628
0.138712
0.138788
0.138855
0.138915
0.138968
0.139013
0.13905
0.139081
0.139105
0.139123
0.139134
0.139139
0.139138
0.139132
0.139119
0.139102
0.13908
0.139052
0.13902
0.138983
0.138941
0.138896
0.138846
0.138793
0.138735
0.138674
0.13861
0.138542
0.138471
0.138397
0.138321
0.138241
0.138159
0.138074
0.137988
0.137899
0.137808
0.137715
0.13762
0.137523
0.137425
0.137326
0.137225
0.137123
0.137019
0.136915
0.13681
0.136703
0.136596
0.136488
0.13638
0.136271
0.136162
0.136052
0.135942
0.135831
0.13572
0.135609
0.135498
0.135387
0.135276
0.135165
0.135054
0.134943
0.134832
0.134722
0.134612
0.134502
0.134392
0.134283
0.134174
0.134066
0.133958
0.13385
0.133743
0.133637
0.133531
0.133426
0.133321
0.133217
0.133114
0.133012
0.13291
0.132809
0.132708
0.132608
0.13251
0.132411
0.132314
0.132217
0.132122
0.132027
0.131932
0.131839
0.131746
0.131654
0.131563
0.131473
0.131384
0.131295
0.131207
0.13112
0.131034
0.130949
0.130865
0.130781
0.130698
0.130616
0.130535
0.130454
0.130374
0.130296
0.130217
0.13014
0.130064
0.129988
0.129913
0.129839
0.129766
0.129693
0.129621
0.12955
0.12948
0.12941
0.129341
0.129273
0.129206
0.129139
0.129073
0.129008
0.128943
0.128879
0.128816
0.128754
0.128692
0.128631
0.12857
0.12851
0.128451
0.128392
0.128334
0.128277
0.12822
0.128164
0.128108
0.128053
0.127999
0.127945
0.127892
0.127839
0.127787
0.127735
0.127685
0.127634
0.127584
0.127535
0.127486
0.127438
0.12739
0.127343
0.127296
0.12725
0.127204
0.127159
0.127115
0.12707
0.127027
0.126984
0.126941
0.126899
0.126857
0.126815
0.126774
0.126734
0.126694
0.126655
0.126616
0.126577
0.126539
0.126501
0.126464
0.126427
0.126391
0.126355
0.126319
0.126284
0.12625
0.126215
0.126182
0.126148
0.126116
0.126083
0.126051
0.12602
0.125988
0.125958
0.125927
0.125898
0.125868
0.125839
0.125811
0.125783
0.125755
0.125728
0.125701
0.125675
0.125649
0.125624
0.125599
0.125575
0.125551
0.125527
0.125504
0.125482
0.12546
0.125438
0.125417
0.125397
0.125377
0.125358
0.125339
0.12532
0.125302
0.125285
0.125268
0.125252
0.125237
0.125221
0.125207
0.125193
0.12518
0.125167
0.125155
0.125143
0.125132
0.125122
0.125112
0.125103
0.125094
0.125086
0.125078
0.125071
0.125065
0.125059
0.125054
0.125049
0.125045
0.125041
0.125038
0.125035
0.125033
0.125031
0.125029
0.125028
0.125027
0.125026
0.125025
0.125024
0.125024
0.125023
0.125023
0.1
0.100007
0.100017
0.100031
0.100049
0.100069
0.100093
0.100119
0.100149
0.100181
0.100217
0.100255
0.100297
0.100342
0.100391
0.100443
0.100499
0.10056
0.100624
0.100694
0.100767
0.100846
0.10093
0.101018
0.101112
0.101211
0.101316
0.101425
0.101541
0.101661
0.101787
0.101919
0.102056
0.102199
0.102348
0.102503
0.102664
0.102831
0.103005
0.103185
0.103372
0.103565
0.103767
0.103975
0.104191
0.104415
0.104647
0.104887
0.105135
0.105392
0.105658
0.105933
0.106216
0.106508
0.10681
0.107121
0.107441
0.10777
0.108108
0.108456
0.108813
0.109179
0.109554
0.109939
0.110332
0.110734
0.111145
0.111565
0.111994
0.112431
0.112876
0.113328
0.113789
0.114257
0.114732
0.115214
0.115703
0.116197
0.116697
0.117202
0.117712
0.118226
0.118744
0.119265
0.119788
0.120313
0.12084
0.121367
0.121894
0.122421
0.122946
0.12347
0.123991
0.124509
0.125023
0.125533
0.126038
0.126538
0.127031
0.127518
0.127998
0.12847
0.128934
0.12939
0.129837
0.130275
0.130703
0.131122
0.13153
0.131928
0.132316
0.132692
0.133058
0.133413
0.133756
0.134088
0.134409
0.134718
0.135016
0.135303
0.135578
0.135842
0.136095
0.136336
0.136566
0.136786
0.136994
0.137192
0.137379
0.137555
0.137722
0.137878
0.138024
0.138161
0.138288
0.138406
0.138515
0.138614
0.138706
0.138788
0.138863
0.138929
0.138987
0.139038
0.139082
0.139118
0.139148
0.139171
0.139187
0.139197
0.139201
0.139198
0.139191
0.139177
0.139159