# vtk DataFile Version 3.0
LBM Fluid Grid
ASCII
DATASET STRUCTURED_POINTS
DIMENSIONS 400 150 1
ORIGIN 0 0 0
SPACING 1 1 1
POINT_DATA 60000
SCALARS VelocityMagnitude double 1
LOOKUP_TABLE default
0.1
0.100002
0.100007
0.100016
0.100029
0.100046
0.100066
0.100091
0.100118
0.10015
0.100185
0.100224
0.100267
0.100313
0.100364
0.100418
0.100476
0.100539
0.100605
0.100676
0.100751
0.100831
0.100916
0.101006
0.1011
0.1012
0.101305
0.101415
0.101531
0.101652
0.101779
0.101912
0.102051
0.102195
0.102346
0.102503
0.102667
0.102837
0.103014
0.103197
0.103387
0.103585
0.103789
0.104001
0.104221
0.104448
0.104683
0.104926
0.105177
0.105436
0.105703
0.10598
0.106264
0.106557
0.106859
0.10717
0.10749
0.107818
0.108156
0.108502
0.108857
0.109222
0.109594
0.109976
0.110367
0.110765
0.111173
0.111588
0.112012
0.112443
0.112883
0.113329
0.113783
0.114244
0.114711
0.115184
0.115664
0.116148
0.116638
0.117133
0.117632
0.118134
0.11864
0.119149
0.11966
0.120172
0.120686
0.1212
0.121715
0.122228
0.122741
0.123252
0.123761
0.124267
0.12477
0.125269
0.125763
0.126252
0.126736
0.127214
0.127685
0.128149
0.128606
0.129055
0.129495
0.129928
0.130351
0.130765
0.131169
0.131564
0.131948
0.132323
0.132687
0.13304
0.133383
0.133714
0.134035
0.134345
0.134644
0.134932
0.135209
0.135475
0.13573
0.135974
0.136208
0.13643
0.136642
0.136844
0.137035
0.137216
0.137386
0.137547
0.137698
0.13784
0.137972
0.138095
0.138208
0.138313
0.138409
0.138497
0.138577
0.138648
0.138712
0.138768
0.138816
0.138858
0.138892
0.138919
0.13894
0.138955
0.138963
0.138965
0.138962
0.138953
0.138938
0.138919
0.138894
0.138864
0.13883
0.138792
0.138749
0.138701
0.13865
0.138595
0.138537
0.138475
0.138409
0.138341
0.138269
0.138195
0.138117
0.138038
0.137955
0.137871
0.137784
0.137695
0.137604
0.137511
0.137416
0.13732
0.137222
0.137123
0.137022
0.136921
0.136818
0.136714
0.136609
0.136503
0.136397
0.13629
0.136182
0.136074
0.135965
0.135856
0.135746
0.135636
0.135526
0.135416
0.135306
0.135196
0.135086
0.134976
0.134866
0.134756
0.134646
0.134537
0.134428
0.134319
0.13421
0.134102
0.133995
0.133888
0.133781
0.133675
0.133569
0.133464
0.133359
0.133256
0.133152
0.13305
0.132948
0.132846
0.132746
0.132646
0.132547
0.132449
0.132351
0.132254
0.132158
0.132063
0.131968
0.131875
0.131782
0.13169
0.131598
0.131508
0.131418
0.131329
0.131241
0.131154
0.131068
0.130982
0.130898
0.130814
0.130731
0.130649
0.130567
0.130487
0.130407
0.130328
0.13025
0.130172
0.130096
0.13002
0.129945
0.129871
0.129798
0.129725
0.129653
0.129582
0.129512
0.129442
0.129373
0.129305
0.129238
0.129172
0.129106
0.129041
0.128976
0.128913
0.12885
0.128787
0.128726
0.128665
0.128605
0.128545
0.128486
0.128428
0.12837
0.128313
0.128257
0.128201
0.128146
0.128091
0.128038
0.127984
0.127932
0.127879
0.127828
0.127777
0.127727
0.127677
0.127628
0.127579
0.127531
0.127483
0.127436
0.127389
0.127343
0.127298
0.127253
0.127208
0.127165
0.127121
0.127078
0.127036
0.126994
0.126952
0.126911
0.12687
0.12683
0.126791
0.126752
0.126713
0.126675
0.126637
0.1266
0.126563
0.126526
0.12649
0.126455
0.12642
0.126385
0.126351
0.126317
0.126283
0.12625
0.126218
0.126186
0.126154
0.126123
0.126092
0.126062
0.126032
0.126003
0.125974
0.125945
0.125917
0.125889
0.125862
0.125835
0.125809
0.125783
0.125758
0.125733
0.125708
0.125684
0.12566
0.125637
0.125615
0.125593
0.125571
0.12555
0.125529
0.125509
0.125489
0.12547
0.125451
0.125433
0.125416
0.125399
0.125382
0.125366
0.125351
0.125336
0.125322
0.125308
0.125295
0.125282
0.12527
0.125259
0.125248
0.125237
0.125228
0.125219
0.12521
0.125202
0.125195
0.125188
0.125182
0.125176
0.125171
0.125166
0.125162
0.125158
0.125155
0.125153
0.12515
0.125148
0.125147
0.125146
0.125145
0.125144
0.125144
0.125144
0.125143
0.125143
0.125143
0.125143
0.125143
0.1
0.100002
0.100007
0.100016
0.100029
0.100046
0.100066
0.10009
0.100118
0.10015
0.100185
0.100224
0.100267
0.100313
0.100363
0.100418
0.100476
0.100538
0.100605
0.100676
0.100751
0.100831
0.100916
0.101005
0.1011
0.101199
0.101304
0.101414
0.10153
0.101651
0.101778
0.101911
0.10205
0.102194
0.102345
0.102502
0.102666
0.102836
0.103012
0.103196
0.103386
0.103583
0.103788
0.104
0.104219
0.104446
0.104681
0.104924
0.105175
0.105434
0.105702
0.105978
0.106262
0.106555
0.106857
0.107168
0.107488
0.107816
0.108154
0.1085
0.108856
0.10922
0.109593
0.109975
0.110365
0.110764
0.111171
0.111587
0.112011
0.112442
0.112882
0.113329
0.113782
0.114243
0.114711
0.115184
0.115664
0.116149
0.116639
0.117134
0.117633
0.118136
0.118642
0.119151
0.119662
0.120175
0.120689
0.121203
0.121718
0.122232
0.122745
0.123256
0.123766
0.124272
0.124775
0.125274
0.125768
0.126258
0.126742
0.12722
0.127691
0.128155
0.128612
0.129061
0.129502
0.129935
0.130358
0.130772
0.131176
0.131571
0.131956
0.13233
0.132694
0.133048
0.13339
0.133722
0.134043
0.134353
0.134652
0.13494
0.135217
0.135483
0.135738
0.135982
0.136215
0.136437
0.136649
0.136851
0.137042
0.137223
0.137393
0.137554
0.137705
0.137846
0.137978
0.138101
0.138215
0.138319
0.138415
0.138503
0.138582
0.138654
0.138717
0.138773
0.138822
0.138863
0.138897
0.138924
0.138945
0.13896
0.138968
0.13897
0.138967
0.138957
0.138943
0.138923
0.138898
0.138869
0.138834
0.138796
0.138752
0.138705
0.138654
0.138599
0.13854
0.138478
0.138413
0.138344
0.138272
0.138198
0.138121
0.138041
0.137958
0.137873
0.137786
0.137697
0.137606
0.137513
0.137419
0.137322
0.137225
0.137125
0.137025
0.136923
0.13682
0.136716
0.136611
0.136505
0.136399
0.136292
0.136184
0.136076
0.135967
0.135858
0.135748
0.135638
0.135528
0.135418
0.135308
0.135198
0.135088
0.134977
0.134867
0.134757
0.134648
0.134538
0.134429
0.13432
0.134212
0.134104
0.133996
0.133889
0.133782
0.133676
0.13357
0.133465
0.133361
0.133257
0.133154
0.133051
0.132949
0.132848
0.132747
0.132647
0.132548
0.13245
0.132352
0.132255
0.132159
0.132064
0.131969
0.131876
0.131783
0.131691
0.131599
0.131509
0.131419
0.13133
0.131242
0.131155
0.131069
0.130983
0.130899
0.130815
0.130732
0.130649
0.130568
0.130487
0.130408
0.130329
0.130251
0.130173
0.130097
0.130021
0.129946
0.129872
0.129798
0.129726
0.129654
0.129583
0.129512
0.129443
0.129374
0.129306
0.129239
0.129172
0.129106
0.129041
0.128977
0.128913
0.12885
0.128788
0.128726
0.128665
0.128605
0.128545
0.128486
0.128428
0.12837
0.128313
0.128257
0.128201
0.128146
0.128092
0.128038
0.127984
0.127932
0.12788
0.127828
0.127777
0.127727
0.127677
0.127628
0.127579
0.127531
0.127483
0.127436
0.127389
0.127343
0.127298
0.127253
0.127208
0.127164
0.127121
0.127078
0.127035
0.126993
0.126952
0.126911
0.12687
0.12683
0.12679
0.126751
0.126712
0.126674
0.126636
0.126599
0.126562
0.126525
0.126489
0.126454
0.126419
0.126384
0.12635
0.126316
0.126282
0.126249
0.126217
0.126185
0.126153
0.126122
0.126091
0.126061
0.126031
0.126001
0.125972
0.125944
0.125915
0.125888
0.12586
0.125834
0.125807
0.125781
0.125756
0.125731
0.125706
0.125682
0.125659
0.125635
0.125613
0.12559
0.125569
0.125548
0.125527
0.125507
0.125487
0.125468
0.125449
0.125431
0.125413
0.125396
0.12538
0.125364
0.125348
0.125333
0.125319
0.125305
0.125292
0.125279
0.125267
0.125256
0.125245
0.125234
0.125225
0.125216
0.125207
0.125199
0.125192
0.125185
0.125178
0.125173
0.125167
0.125163
0.125159
0.125155
0.125152
0.125149
0.125147
0.125145
0.125143
0.125142
0.125141
0.125141
0.12514
0.12514
0.12514
0.125139
0.125139
0.125139
0.125139
0.1
0.100002
0.100007
0.100016
0.100029
0.100046
0.100066
0.10009
0.100118
0.10015
0.100185
0.100224
0.100266
0.100313
0.100363
0.100417
0.100475
0.100537
0.100604
0.100674
0.10075
0.10083
0.100914
0.101003
0.101098
0.101197
0.101302
0.101412
0.101528
0.101649
0.101775
0.101908
0.102046
0.102191
0.102342
0.102499
0.102662
0.102832
0.103008
0.103191
0.103381
0.103579
0.103783
0.103995
0.104214
0.104441
0.104676
0.104918
0.105169
0.105428
0.105696
0.105972
0.106256
0.106549
0.106851
0.107162
0.107482
0.10781
0.108148
0.108495
0.10885
0.109214
0.109588
0.10997
0.11036
0.110759
0.111167
0.111583
0.112007
0.112439
0.112879
0.113326
0.113781
0.114242
0.11471
0.115184
0.115665
0.11615
0.116641
0.117137
0.117636
0.11814
0.118647
0.119156
0.119668
0.120182
0.120697
0.121212
0.121728
0.122243
0.122757
0.123269
0.123779
0.124286
0.124789
0.125289
0.125784
0.126274
0.126759
0.127238
0.127709
0.128174
0.128632
0.129081
0.129523
0.129955
0.130379
0.130793
0.131198
0.131593
0.131978
0.132353
0.132717
0.13307
0.133413
0.133745
0.134066
0.134376
0.134675
0.134962
0.135239
0.135505
0.13576
0.136004
0.136237
0.136459
0.136671
0.136872
0.137063
0.137243
0.137414
0.137574
0.137725
0.137866
0.137998
0.13812
0.138233
0.138338
0.138434
0.138521
0.1386
0.138671
0.138734
0.13879
0.138838
0.138879
0.138913
0.13894
0.13896
0.138974
0.138982
0.138984
0.13898
0.138971
0.138956
0.138936
0.138911
0.138881
0.138847
0.138808
0.138764
0.138717
0.138665
0.13861
0.138551
0.138489
0.138423
0.138354
0.138282
0.138208
0.13813
0.13805
0.137967
0.137882
0.137795
0.137706
0.137615
0.137522
0.137427
0.13733
0.137232
0.137133
0.137032
0.13693
0.136827
0.136723
0.136618
0.136512
0.136405
0.136298
0.13619
0.136082
0.135973
0.135864
0.135754
0.135644
0.135534
0.135424
0.135313
0.135203
0.135093
0.134983
0.134872
0.134762
0.134653
0.134543
0.134434
0.134325
0.134217
0.134108
0.134001
0.133893
0.133787
0.13368
0.133575
0.133469
0.133365
0.133261
0.133158
0.133055
0.132953
0.132852
0.132751
0.132651
0.132552
0.132453
0.132356
0.132259
0.132163
0.132067
0.131973
0.131879
0.131786
0.131694
0.131603
0.131512
0.131422
0.131333
0.131245
0.131158
0.131072
0.130986
0.130901
0.130818
0.130734
0.130652
0.130571
0.13049
0.13041
0.130331
0.130253
0.130176
0.130099
0.130023
0.129948
0.129874
0.1298
0.129728
0.129656
0.129585
0.129514
0.129445
0.129376
0.129308
0.12924
0.129174
0.129108
0.129043
0.128978
0.128914
0.128851
0.128789
0.128727
0.128666
0.128606
0.128546
0.128487
0.128429
0.128371
0.128314
0.128258
0.128202
0.128147
0.128092
0.128038
0.127985
0.127932
0.12788
0.127828
0.127777
0.127727
0.127677
0.127627
0.127579
0.12753
0.127483
0.127435
0.127389
0.127343
0.127297
0.127252
0.127207
0.127163
0.12712
0.127076
0.127034
0.126992
0.12695
0.126909
0.126868
0.126828
0.126788
0.126749
0.12671
0.126672
0.126634
0.126596
0.126559
0.126523
0.126487
0.126451
0.126416
0.126381
0.126347
0.126313
0.126279
0.126246
0.126213
0.126181
0.126149
0.126118
0.126087
0.126057
0.126027
0.125997
0.125968
0.125939
0.125911
0.125883
0.125856
0.125829
0.125802
0.125776
0.12575
0.125725
0.125701
0.125676
0.125653
0.125629
0.125607
0.125584
0.125562
0.125541
0.12552
0.1255
0.12548
0.125461
0.125442
0.125424
0.125406
0.125389
0.125372
0.125356
0.12534
0.125325
0.125311
0.125297
0.125283
0.125271
0.125258
0.125247
0.125236
0.125225
0.125215
0.125206
0.125198
0.125189
0.125182
0.125175
0.125168
0.125163
0.125157
0.125153
0.125148
0.125145
0.125141
0.125138
0.125136
0.125134
0.125133
0.125131
0.12513
0.12513
0.125129
0.125129
0.125128
0.125128
0.125128
0.125128
0.125128
0.1
0.100002
0.100007
0.100016
0.100029
0.100046
0.100066
0.10009
0.100118
0.100149
0.100184
0.100223
0.100265
0.100312
0.100362
0.100416
0.100474
0.100536
0.100602
0.100672
0.100748
0.100827
0.100911
0.101001
0.101095
0.101194
0.101298
0.101408
0.101523
0.101644
0.101771
0.101903
0.102041
0.102185
0.102336
0.102492
0.102655
0.102825
0.103001
0.103184
0.103374
0.103571
0.103775
0.103986
0.104205
0.104432
0.104667
0.104909
0.10516
0.105419
0.105686
0.105962
0.106246
0.106539
0.106841
0.107152
0.107472
0.107801
0.108138
0.108485
0.108841
0.109205
0.109579
0.109961
0.110352
0.110752
0.11116
0.111577
0.112002
0.112434
0.112875
0.113323
0.113778
0.11424
0.114709
0.115185
0.115666
0.116153
0.116645
0.117141
0.117642
0.118147
0.118655
0.119166
0.119679
0.120194
0.120711
0.121227
0.121744
0.122261
0.122776
0.123289
0.1238
0.124309
0.124814
0.125315
0.125811
0.126302
0.126788
0.127267
0.12774
0.128206
0.128665
0.129115
0.129557
0.12999
0.130415
0.130829
0.131235
0.13163
0.132015
0.13239
0.132754
0.133108
0.133451
0.133783
0.134104
0.134414
0.134712
0.135
0.135277
0.135542
0.135797
0.136041
0.136273
0.136495
0.136707
0.136907
0.137098
0.137278
0.137448
0.137608
0.137758
0.137899
0.13803
0.138152
0.138264
0.138368
0.138464
0.13855
0.138629
0.1387
0.138762
0.138817
0.138865
0.138905
0.138939
0.138965
0.138985
0.138999
0.139006
0.139008
0.139003
0.138994
0.138978
0.138958
0.138932
0.138902
0.138867
0.138827
0.138784
0.138736
0.138684
0.138628
0.138569
0.138506
0.13844
0.138371
0.138299
0.138224
0.138146
0.138065
0.137982
0.137897
0.13781
0.13772
0.137629
0.137535
0.13744
0.137343
0.137245
0.137145
0.137044
0.136942
0.136839
0.136735
0.136629
0.136523
0.136416
0.136309
0.136201
0.136092
0.135983
0.135873
0.135764
0.135654
0.135543
0.135433
0.135322
0.135212
0.135102
0.134991
0.134881
0.134771
0.134661
0.134551
0.134442
0.134333
0.134224
0.134116
0.134008
0.133901
0.133794
0.133687
0.133582
0.133476
0.133372
0.133268
0.133164
0.133061
0.132959
0.132858
0.132757
0.132657
0.132558
0.132459
0.132362
0.132265
0.132168
0.132073
0.131978
0.131884
0.131791
0.131699
0.131608
0.131517
0.131427
0.131338
0.13125
0.131163
0.131077
0.130991
0.130906
0.130822
0.130739
0.130657
0.130575
0.130494
0.130414
0.130335
0.130257
0.130179
0.130103
0.130027
0.129952
0.129877
0.129804
0.129731
0.129659
0.129588
0.129517
0.129448
0.129379
0.129311
0.129243
0.129176
0.12911
0.129045
0.128981
0.128917
0.128854
0.128791
0.128729
0.128668
0.128608
0.128548
0.128489
0.12843
0.128373
0.128315
0.128259
0.128203
0.128148
0.128093
0.128039
0.127985
0.127932
0.12788
0.127828
0.127777
0.127726
0.127676
0.127627
0.127578
0.12753
0.127482
0.127434
0.127388
0.127341
0.127295
0.12725
0.127205
0.127161
0.127118
0.127074
0.127032
0.126989
0.126947
0.126906
0.126865
0.126825
0.126785
0.126746
0.126707
0.126668
0.12663
0.126592
0.126555
0.126518
0.126482
0.126446
0.126411
0.126376
0.126341
0.126307
0.126273
0.12624
0.126207
0.126175
0.126143
0.126111
0.12608
0.12605
0.126019
0.12599
0.12596
0.125931
0.125903
0.125875
0.125847
0.12582
0.125793
0.125767
0.125741
0.125716
0.125691
0.125667
0.125643
0.125619
0.125596
0.125574
0.125552
0.12553
0.125509
0.125488
0.125468
0.125449
0.12543
0.125411
0.125393
0.125376
0.125359
0.125343
0.125327
0.125312
0.125297
0.125283
0.125269
0.125256
0.125244
0.125232
0.125221
0.12521
0.1252
0.12519
0.125182
0.125173
0.125166
0.125158
0.125152
0.125146
0.12514
0.125135
0.125131
0.125127
0.125124
0.125121
0.125118
0.125116
0.125114
0.125113
0.125112
0.125111
0.12511
0.12511
0.12511
0.125109
0.125109
0.125109
0.125109
0.1
0.100002
0.100007
0.100016
0.100029
0.100045
0.100066
0.10009
0.100117
0.100149
0.100183
0.100222
0.100264
0.10031
0.10036
0.100414
0.100472
0.100533
0.100599
0.10067
0.100744
0.100824
0.100908
0.100997
0.10109
0.101189
0.101293
0.101403
0.101518
0.101638
0.101764
0.101896
0.102034
0.102178
0.102328
0.102484
0.102646
0.102815
0.102991
0.103174
0.103363
0.10356
0.103763
0.103975
0.104193
0.10442
0.104654
0.104896
0.105147
0.105405
0.105672
0.105948
0.106232
0.106525
0.106827
0.107138
0.107458
0.107787
0.108125
0.108472
0.108828
0.109193
0.109566
0.109949
0.110341
0.110741
0.11115
0.111568
0.111993
0.112427
0.112869
0.113318
0.113774
0.114238
0.114708
0.115185
0.115667
0.116156
0.116649
0.117148
0.11765
0.118157
0.118667
0.11918
0.119695
0.120212
0.12073
0.121249
0.121767
0.122285
0.122803
0.123318
0.123831
0.124341
0.124848
0.12535
0.125848
0.126341
0.126828
0.127309
0.127784
0.128251
0.12871
0.129162
0.129605
0.130039
0.130464
0.13088
0.131286
0.131682
0.132067
0.132443
0.132807
0.133161
0.133504
0.133836
0.134157
0.134467
0.134765
0.135053
0.135329
0.135595
0.135849
0.136092
0.136324
0.136546
0.136757
0.136957
0.137147
0.137326
0.137496
0.137655
0.137804
0.137944
0.138075
0.138196
0.138308
0.138411
0.138506
0.138592
0.13867
0.138739
0.138801
0.138856
0.138903
0.138942
0.138975
0.139001
0.13902
0.139033
0.13904
0.139041
0.139036
0.139025
0.139009
0.138988
0.138962
0.138931
0.138895
0.138855
0.138811
0.138763
0.13871
0.138654
0.138594
0.138531
0.138464
0.138395
0.138322
0.138246
0.138168
0.138087
0.138004
0.137918
0.13783
0.13774
0.137648
0.137554
0.137459
0.137362
0.137263
0.137163
0.137062
0.136959
0.136855
0.136751
0.136645
0.136539
0.136432
0.136324
0.136215
0.136106
0.135997
0.135887
0.135777
0.135667
0.135556
0.135446
0.135335
0.135224
0.135114
0.135003
0.134893
0.134782
0.134672
0.134562
0.134453
0.134344
0.134235
0.134126
0.134018
0.133911
0.133804
0.133697
0.133591
0.133486
0.133381
0.133277
0.133173
0.13307
0.132968
0.132867
0.132766
0.132666
0.132566
0.132468
0.13237
0.132273
0.132176
0.132081
0.131986
0.131892
0.131799
0.131706
0.131615
0.131524
0.131434
0.131345
0.131257
0.13117
0.131083
0.130997
0.130912
0.130828
0.130745
0.130662
0.130581
0.1305
0.13042
0.130341
0.130262
0.130185
0.130108
0.130032
0.129957
0.129882
0.129808
0.129736
0.129663
0.129592
0.129522
0.129452
0.129383
0.129314
0.129247
0.12918
0.129114
0.129048
0.128984
0.12892
0.128856
0.128794
0.128732
0.12867
0.12861
0.12855
0.128491
0.128432
0.128374
0.128317
0.12826
0.128204
0.128148
0.128093
0.128039
0.127985
0.127932
0.12788
0.127828
0.127777
0.127726
0.127676
0.127626
0.127577
0.127528
0.12748
0.127433
0.127386
0.127339
0.127293
0.127248
0.127203
0.127158
0.127114
0.127071
0.127028
0.126985
0.126943
0.126902
0.126861
0.12682
0.12678
0.12674
0.126701
0.126662
0.126624
0.126586
0.126549
0.126512
0.126475
0.126439
0.126403
0.126368
0.126333
0.126299
0.126265
0.126231
0.126198
0.126166
0.126134
0.126102
0.12607
0.126039
0.126009
0.125979
0.125949
0.12592
0.125891
0.125863
0.125835
0.125808
0.125781
0.125754
0.125728
0.125702
0.125677
0.125652
0.125628
0.125604
0.125581
0.125558
0.125536
0.125514
0.125493
0.125472
0.125452
0.125432
0.125412
0.125394
0.125375
0.125358
0.12534
0.125324
0.125308
0.125292
0.125277
0.125263
0.125249
0.125235
0.125223
0.125211
0.125199
0.125188
0.125178
0.125168
0.125159
0.12515
0.125142
0.125135
0.125128
0.125122
0.125116
0.125111
0.125106
0.125102
0.125098
0.125095
0.125092
0.12509
0.125088
0.125087
0.125085
0.125084
0.125084
0.125083
0.125083
0.125082
0.125082
0.125082
0.125082
0.1
0.100002
0.100007
0.100016
0.100029
0.100045
0.100065
0.100089
0.100117
0.100148
0.100182
0.100221
0.100263
0.100309
0.100358
0.100412
0.100469
0.100531
0.100596
0.100666
0.100741
0.10082
0.100903
0.100992
0.101085
0.101183
0.101287
0.101396
0.10151
0.10163
0.101756
0.101887
0.102024
0.102168
0.102317
0.102473
0.102635
0.102803
0.102979
0.103161
0.103349
0.103546
0.103749
0.103959
0.104178
0.104404
0.104638
0.104879
0.105129
0.105388
0.105655
0.10593
0.106214
0.106507
0.106809
0.10712
0.10744
0.107769
0.108107
0.108454
0.108811
0.109176
0.10955
0.109934
0.110326
0.110728
0.111137
0.111556
0.111983
0.112418
0.11286
0.113311
0.113769
0.114234
0.114706
0.115185
0.115669
0.11616
0.116655
0.117156
0.117661
0.11817
0.118682
0.119197
0.119715
0.120234
0.120755
0.121276
0.121797
0.122318
0.122837
0.123355
0.12387
0.124383
0.124892
0.125396
0.125897
0.126391
0.126881
0.127363
0.127839
0.128308
0.128769
0.129222
0.129666
0.130102
0.130528
0.130945
0.131351
0.131748
0.132134
0.13251
0.132875
0.133229
0.133573
0.133905
0.134226
0.134535
0.134834
0.135121
0.135397
0.135662
0.135916
0.136158
0.13639
0.136611
0.136821
0.137021
0.13721
0.137388
0.137557
0.137715
0.137864
0.138003
0.138132
0.138253
0.138364
0.138466
0.13856
0.138645
0.138722
0.138791
0.138852
0.138905
0.138951
0.13899
0.139022
0.139047
0.139065
0.139077
0.139083
0.139083
0.139077
0.139066
0.139049
0.139027
0.139
0.138968
0.138932
0.138891
0.138846
0.138797
0.138744
0.138687
0.138626
0.138562
0.138495
0.138425
0.138351
0.138275
0.138196
0.138115
0.138031
0.137944
0.137856
0.137765
0.137673
0.137579
0.137482
0.137385
0.137286
0.137185
0.137083
0.13698
0.136876
0.136771
0.136665
0.136559
0.136451
0.136343
0.136234
0.136125
0.136015
0.135905
0.135795
0.135684
0.135573
0.135462
0.135351
0.13524
0.135129
0.135018
0.134908
0.134797
0.134687
0.134577
0.134467
0.134357
0.134248
0.13414
0.134032
0.133924
0.133816
0.13371
0.133604
0.133498
0.133393
0.133289
0.133185
0.133082
0.132979
0.132878
0.132777
0.132676
0.132577
0.132478
0.13238
0.132283
0.132186
0.13209
0.131995
0.131901
0.131808
0.131715
0.131624
0.131533
0.131443
0.131354
0.131265
0.131178
0.131091
0.131005
0.13092
0.130836
0.130752
0.13067
0.130588
0.130507
0.130427
0.130347
0.130269
0.130191
0.130114
0.130038
0.129962
0.129888
0.129814
0.129741
0.129669
0.129597
0.129526
0.129456
0.129387
0.129319
0.129251
0.129184
0.129117
0.129052
0.128987
0.128923
0.128859
0.128796
0.128734
0.128673
0.128612
0.128552
0.128492
0.128434
0.128375
0.128318
0.128261
0.128204
0.128149
0.128094
0.128039
0.127985
0.127932
0.127879
0.127827
0.127775
0.127724
0.127674
0.127624
0.127575
0.127526
0.127477
0.12743
0.127382
0.127336
0.127289
0.127244
0.127198
0.127154
0.127109
0.127066
0.127022
0.12698
0.126937
0.126896
0.126854
0.126813
0.126773
0.126733
0.126693
0.126654
0.126616
0.126577
0.12654
0.126502
0.126466
0.126429
0.126393
0.126358
0.126322
0.126288
0.126253
0.12622
0.126186
0.126153
0.126121
0.126089
0.126057
0.126026
0.125995
0.125964
0.125934
0.125905
0.125876
0.125847
0.125819
0.125791
0.125764
0.125737
0.12571
0.125684
0.125659
0.125634
0.125609
0.125585
0.125561
0.125538
0.125515
0.125493
0.125471
0.12545
0.125429
0.125409
0.125389
0.12537
0.125351
0.125333
0.125316
0.125298
0.125282
0.125266
0.125251
0.125236
0.125222
0.125208
0.125195
0.125182
0.12517
0.125159
0.125148
0.125138
0.125129
0.12512
0.125111
0.125103
0.125096
0.12509
0.125084
0.125078
0.125073
0.125069
0.125065
0.125061
0.125058
0.125056
0.125054
0.125052
0.12505
0.125049
0.125048
0.125048
0.125047
0.125047
0.125046
0.125046
0.125046
0.1
0.100002
0.100007
0.100016
0.100028
0.100045
0.100065
0.100089
0.100116
0.100147
0.100181
0.100219
0.100261
0.100307
0.100356
0.100409
0.100466
0.100527
0.100592
0.100662
0.100736
0.100814
0.100897
0.100985
0.101078
0.101176
0.101279
0.101388
0.101501
0.101621
0.101746
0.101876
0.102013
0.102156
0.102304
0.102459
0.102621
0.102789
0.102963
0.103144
0.103333
0.103528
0.103731
0.103941
0.104159
0.104384
0.104617
0.104859
0.105108
0.105367
0.105633
0.105908
0.106192
0.106485
0.106787
0.107098
0.107418
0.107747
0.108085
0.108433
0.10879
0.109156
0.109531
0.109915
0.110308
0.110711
0.111122
0.111541
0.111969
0.112406
0.11285
0.113303
0.113763
0.11423
0.114704
0.115185
0.115672
0.116164
0.116663
0.117166
0.117673
0.118185
0.1187
0.119218
0.119739
0.120261
0.120785
0.121309
0.121833
0.122357
0.122879
0.1234
0.123918
0.124434
0.124945
0.125453
0.125955
0.126453
0.126944
0.127429
0.127908
0.128378
0.128841
0.129296
0.129742
0.130179
0.130606
0.131024
0.131432
0.131829
0.132217
0.132593
0.132958
0.133313
0.133656
0.133988
0.134309
0.134619
0.134917
0.135204
0.13548
0.135744
0.135997
0.136239
0.13647
0.13669
0.1369
0.137098
0.137286
0.137464
0.137632
0.137789
0.137937
0.138075
0.138203
0.138322
0.138432
0.138533
0.138626
0.13871
0.138786
0.138853
0.138913
0.138965
0.13901
0.139048
0.139079
0.139103
0.13912
0.139131
0.139136
0.139134
0.139128
0.139115
0.139097
0.139074
0.139046
0.139014
0.138976
0.138935
0.138889
0.138839
0.138784
0.138727
0.138665
0.138601
0.138533
0.138461
0.138387
0.13831
0.13823
0.138148
0.138064
0.137977
0.137887
0.137796
0.137703
0.137608
0.137511
0.137413
0.137314
0.137212
0.13711
0.137007
0.136902
0.136796
0.13669
0.136583
0.136475
0.136366
0.136257
0.136147
0.136037
0.135926
0.135816
0.135705
0.135593
0.135482
0.135371
0.135259
0.135148
0.135037
0.134926
0.134815
0.134704
0.134594
0.134484
0.134374
0.134265
0.134156
0.134047
0.133939
0.133832
0.133725
0.133618
0.133512
0.133407
0.133303
0.133199
0.133095
0.132993
0.132891
0.132789
0.132689
0.132589
0.13249
0.132392
0.132294
0.132198
0.132102
0.132007
0.131912
0.131819
0.131726
0.131634
0.131543
0.131453
0.131364
0.131275
0.131187
0.1311
0.131014
0.130929
0.130844
0.130761
0.130678
0.130596
0.130515
0.130434
0.130355
0.130276
0.130198
0.130121
0.130045
0.129969
0.129894
0.12982
0.129747
0.129674
0.129603
0.129532
0.129461
0.129392
0.129323
0.129255
0.129188
0.129121
0.129055
0.12899
0.128926
0.128862
0.128799
0.128737
0.128675
0.128614
0.128553
0.128494
0.128435
0.128376
0.128318
0.128261
0.128204
0.128148
0.128093
0.128038
0.127984
0.12793
0.127877
0.127825
0.127773
0.127722
0.127671
0.127621
0.127571
0.127522
0.127473
0.127425
0.127377
0.12733
0.127284
0.127238
0.127192
0.127147
0.127103
0.127058
0.127015
0.126972
0.126929
0.126887
0.126845
0.126804
0.126763
0.126723
0.126683
0.126643
0.126604
0.126566
0.126528
0.12649
0.126453
0.126416
0.12638
0.126344
0.126308
0.126273
0.126238
0.126204
0.12617
0.126137
0.126104
0.126071
0.126039
0.126007
0.125976
0.125945
0.125915
0.125885
0.125855
0.125826
0.125797
0.125769
0.125741
0.125714
0.125687
0.125661
0.125635
0.125609
0.125584
0.125559
0.125535
0.125512
0.125488
0.125466
0.125443
0.125422
0.1254
0.12538
0.12536
0.12534
0.125321
0.125302
0.125284
0.125266
0.125249
0.125233
0.125217
0.125202
0.125187
0.125173
0.125159
0.125146
0.125134
0.125122
0.125111
0.1251
0.12509
0.125081
0.125072
0.125064
0.125056
0.125049
0.125043
0.125037
0.125032
0.125027
0.125022
0.125019
0.125015
0.125013
0.12501
0.125008
0.125006
0.125005
0.125004
0.125003
0.125003
0.125002
0.125002
0.125001
0.125001
0.1
0.100002
0.100007
0.100016
0.100028
0.100044
0.100064
0.100088
0.100115
0.100146
0.10018
0.100218
0.100259
0.100304
0.100353
0.100406
0.100462
0.100523
0.100588
0.100657
0.10073
0.100808
0.100891
0.100978
0.10107
0.101167
0.10127
0.101377
0.101491
0.101609
0.101733
0.101863
0.101999
0.102141
0.102289
0.102443
0.102604
0.102771
0.102945
0.103125
0.103313
0.103507
0.103709
0.103919
0.104136
0.104361
0.104593
0.104834
0.105083
0.105341
0.105607
0.105882
0.106166
0.106458
0.10676
0.107071
0.107391
0.10772
0.108059
0.108407
0.108764
0.109131
0.109507
0.109892
0.110287
0.11069
0.111102
0.111524
0.111953
0.112392
0.112838
0.113292
0.113755
0.114224
0.114701
0.115184
0.115674
0.11617
0.116671
0.117177
0.117688
0.118203
0.118722
0.119243
0.119767
0.120293
0.12082
0.121348
0.121876
0.122403
0.122929
0.123453
0.123975
0.124494
0.125009
0.12552
0.126025
0.126526
0.12702
0.127508
0.127988
0.128462
0.128927
0.129384
0.129831
0.13027
0.130699
0.131118
0.131527
0.131926
0.132314
0.132691
0.133057
0.133412
0.133755
0.134088
0.134409
0.134718
0.135016
0.135303
0.135578
0.135841
0.136094
0.136335
0.136565
0.136784
0.136993
0.13719
0.137377
0.137554
0.13772
0.137876
0.138023
0.138159
0.138286
0.138404
0.138513
0.138613
0.138704
0.138786
0.138861
0.138927
0.138986
0.139037
0.13908
0.139116
0.139146
0.139168
0.139184
0.139194
0.139198
0.139195
0.139187
0.139173
0.139154
0.13913
0.139101
0.139067
0.139029
0.138986
0.138939
0.138888
0.138833
0.138774
0.138711
0.138646
0.138577
0.138504
0.138429
0.138351
0.138271
0.138188
0.138102
0.138014
0.137924
0.137832
0.137739
0.137643
0.137545
0.137447
0.137346
0.137244
0.137141
0.137037
0.136932
0.136826
0.136719
0.136611
0.136502
0.136393
0.136283
0.136173
0.136062
0.135951
0.13584
0.135729
0.135617
0.135505
0.135393
0.135282
0.13517
0.135058
0.134947
0.134835
0.134724
0.134614
0.134503
0.134393
0.134284
0.134174
0.134065
0.133957
0.133849
0.133742
0.133635
0.133529
0.133424
0.133319
0.133214
0.133111
0.133008
0.132906
0.132804
0.132703
0.132603
0.132504
0.132406
0.132308
0.132211
0.132115
0.132019
0.131925
0.131831
0.131738
0.131646
0.131555
0.131464
0.131375
0.131286
0.131198
0.131111
0.131024
0.130939
0.130854
0.13077
0.130687
0.130605
0.130523
0.130443
0.130363
0.130284
0.130206
0.130128
0.130052
0.129976
0.129901
0.129826
0.129753
0.12968
0.129608
0.129537
0.129466
0.129397
0.129328
0.129259
0.129192
0.129125
0.129059
0.128993
0.128928
0.128864
0.128801
0.128738
0.128676
0.128615
0.128554
0.128494
0.128435
0.128376
0.128318
0.12826
0.128203
0.128147
0.128091
0.128036
0.127981
0.127927
0.127874
0.127821
0.127769
0.127717
0.127666
0.127615
0.127565
0.127516
0.127467
0.127418
0.12737
0.127323
0.127276
0.127229
0.127183
0.127138
0.127093
0.127048
0.127004
0.126961
0.126918
0.126875
0.126833
0.126791
0.12675
0.126709
0.126669
0.126629
0.12659
0.12655
0.126512
0.126474
0.126436
0.126399
0.126362
0.126325
0.126289
0.126254
0.126219
0.126184
0.12615
0.126116
0.126082
0.126049
0.126016
0.125984
0.125952
0.125921
0.12589
0.12586
0.12583
0.1258
0.125771
0.125742
0.125714
0.125686
0.125658
0.125631
0.125605
0.125579
0.125553
0.125528
0.125503
0.125479
0.125455
0.125432
0.125409
0.125387
0.125365
0.125344
0.125323
0.125302
0.125283
0.125264
0.125245
0.125227
0.125209
0.125192
0.125176
0.12516
0.125145
0.12513
0.125116
0.125102
0.125089
0.125077
0.125065
0.125054
0.125043
0.125033
0.125024
0.125015
0.125007
0.125
0.124993
0.124986
0.124981
0.124975
0.124971
0.124967
0.124963
0.12496
0.124957
0.124955
0.124953
0.124951
0.12495
0.124949
0.124948
0.124947
0.124947
0.124946
0.124946
0.1
0.100002
0.100007
0.100015
0.100028
0.100044
0.100064
0.100087
0.100114
0.100144
0.100178
0.100216
0.100257
0.100301
0.10035
0.100402
0.100458
0.100518
0.100582
0.100651
0.100724
0.100801
0.100883
0.100969
0.101061
0.101157
0.101259
0.101366
0.101478
0.101596
0.101719
0.101848
0.101983
0.102124
0.102271
0.102425
0.102584
0.10275
0.102923
0.103103
0.10329
0.103483
0.103685
0.103893
0.104109
0.104334
0.104566
0.104806
0.105054
0.105311
0.105577
0.105852
0.106135
0.106428
0.106729
0.10704
0.10736
0.10769
0.108029
0.108377
0.108735
0.109103
0.109479
0.109866
0.110261
0.110666
0.11108
0.111503
0.111934
0.112375
0.112823
0.11328
0.113745
0.114217
0.114697
0.115183
0.115676
0.116175
0.11668
0.11719
0.117705
0.118223
0.118746
0.119272
0.1198
0.12033
0.120861
0.121393
0.121925
0.122457
0.122987
0.123515
0.124041
0.124564
0.125082
0.125597
0.126106
0.12661
0.127108
0.127598
0.128082
0.128558
0.129026
0.129485
0.129935
0.130376
0.130806
0.131227
0.131638
0.132037
0.132426
0.132804
0.133171
0.133526
0.13387
0.134202
0.134523
0.134832
0.13513
0.135416
0.135691
0.135954
0.136205
0.136446
0.136675
0.136893
0.1371
0.137296
0.137482
0.137657
0.137822
0.137977
0.138122
0.138257
0.138382
0.138499
0.138606
0.138704
0.138794
0.138875
0.138947
0.139012
0.139069
0.139118
0.13916
0.139195
0.139223
0.139244
0.139258
0.139267
0.139269
0.139265
0.139255
0.13924
0.13922