# vtk DataFile Version 3.0
LBM Fluid Grid
ASCII
DATASET STRUCTURED_POINTS
DIMENSIONS 400 150 1
ORIGIN 0 0 0
SPACING 1 1 1
POINT_DATA 60000
SCALARS VelocityMagnitude double 1
LOOKUP_TABLE default
0.1
0.100002
0.100004
0.100007
0.10001
0.100016
0.100024
0.100035
0.10005
0.100069
0.100093
0.100123
0.100159
0.100202
0.10025
0.100306
0.100367
0.100435
0.100508
0.100588
0.100672
0.100761
0.100855
0.100954
0.101056
0.101163
0.101273
0.101387
0.101505
0.101627
0.101754
0.101885
0.102021
0.102163
0.10231
0.102463
0.102623
0.102789
0.102963
0.103145
0.103334
0.103531
0.103736
0.10395
0.104172
0.104403
0.104642
0.104889
0.105145
0.105409
0.105681
0.105961
0.10625
0.106547
0.106852
0.107165
0.107486
0.107815
0.108153
0.108499
0.108853
0.109216
0.109587
0.109967
0.110355
0.110752
0.111158
0.111572
0.111994
0.112425
0.112863
0.11331
0.113764
0.114225
0.114693
0.115168
0.115649
0.116135
0.116627
0.117123
0.117623
0.118127
0.118634
0.119144
0.119655
0.120168
0.120682
0.121196
0.121709
0.122222
0.122733
0.123243
0.12375
0.124254
0.124755
0.125252
0.125744
0.126231
0.126713
0.127189
0.127659
0.128122
0.128578
0.129026
0.129466
0.129898
0.130322
0.130736
0.131141
0.131536
0.131921
0.132297
0.132661
0.133016
0.133359
0.133692
0.134014
0.134324
0.134624
0.134912
0.135189
0.135455
0.13571
0.135954
0.136187
0.136409
0.13662
0.136821
0.137011
0.137191
0.137361
0.137521
0.137672
0.137812
0.137944
0.138066
0.13818
0.138284
0.138381
0.138468
0.138548
0.13862
0.138684
0.138741
0.13879
0.138833
0.138868
0.138897
0.138919
0.138934
0.138944
0.138947
0.138944
0.138936
0.138923
0.138904
0.138879
0.13885
0.138816
0.138778
0.138735
0.138688
0.138637
0.138582
0.138523
0.13846
0.138395
0.138326
0.138254
0.138179
0.138101
0.138021
0.137938
0.137853
0.137766
0.137677
0.137586
0.137493
0.137399
0.137303
0.137205
0.137106
0.137006
0.136905
0.136802
0.136698
0.136594
0.136488
0.136382
0.136275
0.136167
0.136059
0.13595
0.135841
0.135731
0.135621
0.135511
0.1354
0.13529
0.135179
0.135068
0.134957
0.134847
0.134736
0.134626
0.134515
0.134406
0.134296
0.134187
0.134078
0.13397
0.133862
0.133755
0.133648
0.133542
0.133437
0.133332
0.133228
0.133124
0.133022
0.132919
0.132818
0.132717
0.132617
0.132518
0.132419
0.132322
0.132224
0.132128
0.132033
0.131938
0.131844
0.131751
0.131658
0.131567
0.131476
0.131386
0.131297
0.131208
0.131121
0.131034
0.130948
0.130864
0.130779
0.130696
0.130614
0.130533
0.130452
0.130372
0.130294
0.130216
0.130138
0.130062
0.129987
0.129912
0.129838
0.129765
0.129693
0.129622
0.129551
0.129481
0.129412
0.129344
0.129276
0.12921
0.129144
0.129078
0.129014
0.12895
0.128887
0.128824
0.128762
0.128701
0.128641
0.128581
0.128522
0.128464
0.128406
0.128349
0.128293
0.128237
0.128182
0.128128
0.128074
0.128021
0.127969
0.127917
0.127865
0.127815
0.127765
0.127715
0.127666
0.127618
0.12757
0.127522
0.127475
0.127429
0.127383
0.127338
0.127293
0.127249
0.127205
0.127162
0.127119
0.127076
0.127034
0.126993
0.126952
0.126911
0.126871
0.126832
0.126792
0.126754
0.126715
0.126678
0.12664
0.126603
0.126567
0.12653
0.126495
0.126459
0.126424
0.12639
0.126356
0.126322
0.126289
0.126256
0.126224
0.126192
0.12616
0.126129
0.126098
0.126068
0.126038
0.126008
0.125979
0.12595
0.125922
0.125894
0.125866
0.125839
0.125813
0.125786
0.12576
0.125735
0.12571
0.125686
0.125662
0.125638
0.125615
0.125592
0.12557
0.125549
0.125527
0.125507
0.125486
0.125467
0.125448
0.125429
0.125411
0.125393
0.125376
0.125359
0.125343
0.125328
0.125313
0.125298
0.125285
0.125271
0.125259
0.125247
0.125235
0.125224
0.125214
0.125204
0.125195
0.125186
0.125178
0.125171
0.125164
0.125158
0.125152
0.125147
0.125142
0.125138
0.125134
0.125131
0.125128
0.125125
0.125123
0.125122
0.12512
0.125119
0.125118
0.125117
0.125117
0.125116
0.125115
0.125115
0.125115
0.1
0.100002
0.100004
0.100007
0.10001
0.100016
0.100024
0.100035
0.10005
0.100069
0.100093
0.100123
0.100159
0.100202
0.10025
0.100305
0.100367
0.100435
0.100508
0.100587
0.100672
0.100761
0.100855
0.100953
0.101056
0.101162
0.101272
0.101386
0.101504
0.101627
0.101753
0.101884
0.10202
0.102161
0.102309
0.102462
0.102621
0.102788
0.102962
0.103143
0.103332
0.103529
0.103735
0.103948
0.10417
0.104401
0.10464
0.104887
0.105143
0.105407
0.105679
0.105959
0.106248
0.106545
0.10685
0.107163
0.107484
0.107813
0.108151
0.108497
0.108851
0.109214
0.109585
0.109965
0.110354
0.110751
0.111156
0.11157
0.111993
0.112424
0.112862
0.113309
0.113763
0.114225
0.114693
0.115168
0.115649
0.116136
0.116627
0.117124
0.117624
0.118129
0.118636
0.119146
0.119657
0.12017
0.120684
0.121199
0.121712
0.122226
0.122737
0.123247
0.123754
0.124259
0.12476
0.125257
0.125749
0.126237
0.126719
0.127195
0.127665
0.128128
0.128584
0.129033
0.129473
0.129905
0.130329
0.130743
0.131148
0.131543
0.131929
0.132304
0.132669
0.133023
0.133367
0.1337
0.134021
0.134332
0.134631
0.13492
0.135197
0.135463
0.135718
0.135961
0.136194
0.136416
0.136628
0.136828
0.137018
0.137198
0.137368
0.137528
0.137678
0.137819
0.13795
0.138073
0.138186
0.13829
0.138387
0.138474
0.138554
0.138626
0.13869
0.138747
0.138796
0.138838
0.138873
0.138902
0.138924
0.138939
0.138948
0.138952
0.138949
0.138941
0.138927
0.138908
0.138884
0.138855
0.138821
0.138782
0.138739
0.138692
0.13864
0.138585
0.138526
0.138464
0.138398
0.138329
0.138257
0.138182
0.138104
0.138024
0.137941
0.137856
0.137769
0.13768
0.137589
0.137496
0.137402
0.137305
0.137208
0.137109
0.137008
0.136907
0.136804
0.136701
0.136596
0.136491
0.136384
0.136277
0.13617
0.136061
0.135952
0.135843
0.135733
0.135623
0.135513
0.135402
0.135292
0.135181
0.13507
0.134959
0.134848
0.134738
0.134627
0.134517
0.134407
0.134298
0.134189
0.13408
0.133972
0.133864
0.133757
0.13365
0.133544
0.133438
0.133334
0.133229
0.133126
0.133023
0.132921
0.132819
0.132719
0.132618
0.132519
0.132421
0.132323
0.132226
0.132129
0.132034
0.131939
0.131845
0.131752
0.131659
0.131568
0.131477
0.131387
0.131298
0.131209
0.131122
0.131035
0.130949
0.130864
0.13078
0.130697
0.130615
0.130533
0.130453
0.130373
0.130294
0.130216
0.130139
0.130063
0.129987
0.129913
0.129839
0.129766
0.129694
0.129622
0.129552
0.129482
0.129413
0.129345
0.129277
0.12921
0.129144
0.129079
0.129014
0.12895
0.128887
0.128825
0.128763
0.128702
0.128641
0.128582
0.128523
0.128464
0.128407
0.12835
0.128293
0.128238
0.128183
0.128128
0.128074
0.128021
0.127969
0.127917
0.127865
0.127815
0.127765
0.127715
0.127666
0.127617
0.12757
0.127522
0.127475
0.127429
0.127383
0.127338
0.127293
0.127249
0.127205
0.127161
0.127118
0.127076
0.127034
0.126992
0.126951
0.126911
0.126871
0.126831
0.126792
0.126753
0.126715
0.126677
0.126639
0.126602
0.126566
0.12653
0.126494
0.126458
0.126424
0.126389
0.126355
0.126321
0.126288
0.126255
0.126223
0.126191
0.126159
0.126128
0.126097
0.126066
0.126036
0.126007
0.125978
0.125949
0.12592
0.125892
0.125865
0.125838
0.125811
0.125785
0.125759
0.125733
0.125708
0.125684
0.12566
0.125636
0.125613
0.12559
0.125568
0.125546
0.125525
0.125504
0.125484
0.125464
0.125445
0.125426
0.125408
0.125391
0.125373
0.125357
0.125341
0.125325
0.12531
0.125296
0.125282
0.125269
0.125256
0.125244
0.125232
0.125221
0.125211
0.125201
0.125192
0.125183
0.125175
0.125168
0.125161
0.125154
0.125148
0.125143
0.125138
0.125134
0.12513
0.125127
0.125124
0.125122
0.12512
0.125118
0.125117
0.125115
0.125115
0.125114
0.125113
0.125112
0.125112
0.125111
0.125111
0.1
0.100002
0.100004
0.100007
0.10001
0.100016
0.100024
0.100035
0.100049
0.100069
0.100093
0.100123
0.100159
0.100201
0.10025
0.100305
0.100366
0.100434
0.100507
0.100586
0.100671
0.10076
0.100853
0.100952
0.101054
0.10116
0.10127
0.101384
0.101502
0.101624
0.10175
0.101881
0.102017
0.102158
0.102305
0.102458
0.102618
0.102784
0.102958
0.103139
0.103328
0.103525
0.10373
0.103944
0.104165
0.104396
0.104635
0.104882
0.105137
0.105401
0.105673
0.105954
0.106242
0.106539
0.106844
0.107157
0.107478
0.107807
0.108145
0.108491
0.108845
0.109208
0.10958
0.10996
0.110349
0.110746
0.111152
0.111566
0.111989
0.112421
0.11286
0.113307
0.113762
0.114224
0.114693
0.115168
0.11565
0.116137
0.116629
0.117127
0.117628
0.118133
0.118641
0.119151
0.119664
0.120178
0.120692
0.121207
0.121722
0.122236
0.122749
0.123259
0.123767
0.124272
0.124774
0.125272
0.125765
0.126253
0.126736
0.127213
0.127683
0.128147
0.128604
0.129053
0.129494
0.129926
0.13035
0.130765
0.13117
0.131565
0.131951
0.132327
0.132692
0.133046
0.13339
0.133722
0.134044
0.134355
0.134654
0.134942
0.135219
0.135485
0.13574
0.135984
0.136216
0.136438
0.136649
0.136849
0.137039
0.137219
0.137389
0.137548
0.137698
0.137839
0.13797
0.138092
0.138205
0.138309
0.138405
0.138492
0.138572
0.138643
0.138707
0.138763
0.138812
0.138854
0.138889
0.138917
0.138939
0.138954
0.138963
0.138966
0.138963
0.138954
0.13894
0.138921
0.138897
0.138867
0.138833
0.138794
0.138751
0.138703
0.138652
0.138596
0.138537
0.138475
0.138409
0.138339
0.138267
0.138192
0.138114
0.138034
0.137951
0.137865
0.137778
0.137689
0.137597
0.137504
0.13741
0.137313
0.137216
0.137116
0.137016
0.136914
0.136812
0.136708
0.136603
0.136497
0.136391
0.136284
0.136176
0.136068
0.135959
0.135849
0.135739
0.135629
0.135519
0.135408
0.135297
0.135186
0.135075
0.134964
0.134854
0.134743
0.134632
0.134522
0.134412
0.134303
0.134193
0.134085
0.133976
0.133868
0.133761
0.133654
0.133548
0.133443
0.133338
0.133233
0.13313
0.133027
0.132925
0.132823
0.132722
0.132622
0.132523
0.132424
0.132326
0.132229
0.132133
0.132037
0.131942
0.131848
0.131755
0.131663
0.131571
0.13148
0.13139
0.131301
0.131212
0.131125
0.131038
0.130952
0.130867
0.130783
0.1307
0.130618
0.130536
0.130456
0.130376
0.130297
0.130219
0.130142
0.130065
0.12999
0.129915
0.129841
0.129768
0.129696
0.129625
0.129554
0.129484
0.129415
0.129347
0.129279
0.129212
0.129146
0.12908
0.129016
0.128952
0.128889
0.128826
0.128764
0.128703
0.128643
0.128583
0.128524
0.128465
0.128408
0.128351
0.128294
0.128238
0.128183
0.128129
0.128075
0.128022
0.127969
0.127917
0.127866
0.127815
0.127765
0.127715
0.127666
0.127617
0.127569
0.127522
0.127475
0.127428
0.127383
0.127337
0.127292
0.127248
0.127204
0.12716
0.127117
0.127075
0.127033
0.126991
0.12695
0.126909
0.126869
0.126829
0.12679
0.126751
0.126713
0.126675
0.126637
0.1266
0.126563
0.126527
0.126491
0.126456
0.126421
0.126386
0.126352
0.126318
0.126285
0.126252
0.126219
0.126187
0.126155
0.126124
0.126093
0.126062
0.126032
0.126002
0.125973
0.125944
0.125916
0.125888
0.12586
0.125833
0.125806
0.125779
0.125753
0.125728
0.125703
0.125678
0.125654
0.12563
0.125607
0.125584
0.125562
0.12554
0.125519
0.125498
0.125477
0.125457
0.125438
0.125419
0.125401
0.125383
0.125366
0.125349
0.125333
0.125317
0.125302
0.125287
0.125273
0.12526
0.125247
0.125235
0.125223
0.125212
0.125202
0.125192
0.125182
0.125174
0.125165
0.125158
0.125151
0.125144
0.125138
0.125133
0.125128
0.125124
0.12512
0.125117
0.125114
0.125111
0.125109
0.125107
0.125106
0.125104
0.125103
0.125103
0.125102
0.125101
0.125101
0.1251
0.1251
0.1
0.100002
0.100004
0.100007
0.10001
0.100016
0.100024
0.100035
0.100049
0.100069
0.100093
0.100123
0.100159
0.100201
0.100249
0.100304
0.100365
0.100433
0.100506
0.100585
0.100669
0.100758
0.100851
0.100949
0.101051
0.101157
0.101267
0.10138
0.101498
0.10162
0.101746
0.101876
0.102012
0.102153
0.102299
0.102452
0.102611
0.102777
0.102951
0.103132
0.10332
0.103517
0.103722
0.103935
0.104157
0.104387
0.104626
0.104873
0.105128
0.105392
0.105664
0.105944
0.106232
0.106529
0.106834
0.107147
0.107468
0.107797
0.108135
0.108481
0.108836
0.109199
0.109571
0.109952
0.110341
0.110739
0.111145
0.11156
0.111984
0.112415
0.112855
0.113303
0.113759
0.114222
0.114692
0.115168
0.115651
0.116139
0.116633
0.117131
0.117634
0.11814
0.118649
0.119161
0.119675
0.12019
0.120706
0.121222
0.121738
0.122254
0.122768
0.123279
0.123789
0.124295
0.124798
0.125297
0.125792
0.126281
0.126765
0.127243
0.127714
0.128179
0.128636
0.129086
0.129528
0.129961
0.130385
0.1308
0.131206
0.131602
0.131988
0.132364
0.132729
0.133084
0.133428
0.13376
0.134082
0.134393
0.134692
0.13498
0.135257
0.135522
0.135777
0.13602
0.136253
0.136474
0.136685
0.136885
0.137074
0.137254
0.137423
0.137582
0.137731
0.137871
0.138002
0.138123
0.138236
0.13834
0.138435
0.138522
0.138601
0.138672
0.138735
0.138791
0.138839
0.138881
0.138915
0.138943
0.138964
0.138978
0.138987
0.138989
0.138986
0.138977
0.138963
0.138943
0.138918
0.138888
0.138853
0.138814
0.13877
0.138723
0.138671
0.138615
0.138555
0.138492
0.138426
0.138356
0.138284
0.138208
0.13813
0.138049
0.137966
0.13788
0.137793
0.137703
0.137612
0.137518
0.137423
0.137327
0.137229
0.137129
0.137028
0.136927
0.136824
0.13672
0.136615
0.136509
0.136402
0.136295
0.136187
0.136078
0.135969
0.135859
0.135749
0.135639
0.135528
0.135417
0.135306
0.135195
0.135084
0.134973
0.134862
0.134751
0.134641
0.13453
0.13442
0.13431
0.134201
0.134092
0.133984
0.133876
0.133768
0.133662
0.133555
0.13345
0.133345
0.13324
0.133137
0.133034
0.132931
0.13283
0.132729
0.132629
0.132529
0.13243
0.132332
0.132235
0.132139
0.132043
0.131948
0.131854
0.131761
0.131668
0.131576
0.131485
0.131395
0.131306
0.131217
0.13113
0.131043
0.130957
0.130872
0.130788
0.130705
0.130622
0.130541
0.13046
0.13038
0.130301
0.130223
0.130146
0.130069
0.129994
0.129919
0.129845
0.129772
0.1297
0.129628
0.129557
0.129487
0.129418
0.12935
0.129282
0.129215
0.129149
0.129083
0.129018
0.128954
0.128891
0.128828
0.128766
0.128705
0.128644
0.128585
0.128525
0.128467
0.128409
0.128352
0.128295
0.128239
0.128184
0.12813
0.128076
0.128022
0.12797
0.127918
0.127866
0.127815
0.127765
0.127715
0.127666
0.127617
0.127569
0.127521
0.127474
0.127427
0.127381
0.127336
0.127291
0.127246
0.127202
0.127158
0.127115
0.127073
0.12703
0.126989
0.126947
0.126907
0.126866
0.126826
0.126787
0.126748
0.126709
0.126671
0.126633
0.126596
0.126559
0.126523
0.126487
0.126451
0.126416
0.126381
0.126347
0.126313
0.126279
0.126246
0.126213
0.126181
0.126149
0.126117
0.126086
0.126055
0.126025
0.125995
0.125966
0.125936
0.125908
0.125879
0.125852
0.125824
0.125797
0.12577
0.125744
0.125719
0.125693
0.125668
0.125644
0.12562
0.125597
0.125574
0.125551
0.125529
0.125507
0.125486
0.125466
0.125446
0.125426
0.125407
0.125388
0.12537
0.125353
0.125336
0.125319
0.125304
0.125288
0.125273
0.125259
0.125246
0.125233
0.12522
0.125208
0.125197
0.125186
0.125176
0.125166
0.125157
0.125149
0.125141
0.125134
0.125127
0.125121
0.125116
0.125111
0.125106
0.125102
0.125099
0.125096
0.125093
0.125091
0.125089
0.125087
0.125086
0.125085
0.125084
0.125083
0.125082
0.125082
0.125081
0.125081
0.1
0.100002
0.100004
0.100007
0.10001
0.100016
0.100024
0.100035
0.100049
0.100068
0.100093
0.100122
0.100158
0.1002
0.100248
0.100303
0.100364
0.100431
0.100504
0.100582
0.100666
0.100755
0.100848
0.100945
0.101047
0.101152
0.101262
0.101375
0.101492
0.101614
0.101739
0.101869
0.102005
0.102145
0.102291
0.102444
0.102603
0.102768
0.102941
0.103122
0.10331
0.103507
0.103711
0.103924
0.104145
0.104375
0.104613
0.10486
0.105115
0.105378
0.10565
0.10593
0.106218
0.106515
0.10682
0.107133
0.107454
0.107783
0.108121
0.108468
0.108823
0.109186
0.109559
0.10994
0.110329
0.110728
0.111135
0.111551
0.111975
0.112408
0.112849
0.113298
0.113755
0.114219
0.11469
0.115168
0.115652
0.116142
0.116638
0.117137
0.117642
0.11815
0.118661
0.119174
0.11969
0.120207
0.120725
0.121243
0.121761
0.122278
0.122794
0.123308
0.123819
0.124327
0.124832
0.125333
0.125829
0.12632
0.126805
0.127284
0.127757
0.128223
0.128682
0.129133
0.129575
0.13001
0.130435
0.130851
0.131257
0.131654
0.13204
0.132416
0.132782
0.133137
0.133481
0.133814
0.134135
0.134446
0.134745
0.135033
0.135309
0.135575
0.135829
0.136072
0.136304
0.136525
0.136735
0.136934
0.137123
0.137302
0.137471
0.137629
0.137778
0.137917
0.138047
0.138168
0.13828
0.138383
0.138477
0.138564
0.138642
0.138712
0.138775
0.13883
0.138877
0.138918
0.138952
0.138979
0.138999
0.139013
0.139021
0.139023
0.139019
0.139009
0.138994
0.138973
0.138948
0.138917
0.138882
0.138842
0.138798
0.13875
0.138697
0.138641
0.138581
0.138517
0.13845
0.13838
0.138307
0.138231
0.138152
0.138071
0.137987
0.137901
0.137813
0.137723
0.137631
0.137538
0.137442
0.137345
0.137247
0.137147
0.137046
0.136944
0.13684
0.136736
0.136631
0.136525
0.136418
0.13631
0.136202
0.136093
0.135983
0.135873
0.135763
0.135652
0.135542
0.13543
0.135319
0.135208
0.135097
0.134985
0.134874
0.134763
0.134652
0.134542
0.134431
0.134322
0.134212
0.134103
0.133994
0.133886
0.133779
0.133672
0.133565
0.13346
0.133354
0.13325
0.133146
0.133043
0.13294
0.132839
0.132738
0.132637
0.132538
0.132439
0.132341
0.132243
0.132147
0.132051
0.131956
0.131862
0.131768
0.131675
0.131584
0.131493
0.131402
0.131313
0.131224
0.131137
0.13105
0.130964
0.130879
0.130794
0.130711
0.130628
0.130547
0.130466
0.130386
0.130307
0.130228
0.130151
0.130075
0.129999
0.129924
0.12985
0.129777
0.129704
0.129632
0.129562
0.129491
0.129422
0.129354
0.129286
0.129219
0.129152
0.129087
0.129022
0.128957
0.128894
0.128831
0.128769
0.128708
0.128647
0.128587
0.128527
0.128469
0.128411
0.128353
0.128297
0.128241
0.128185
0.128131
0.128076
0.128023
0.12797
0.127918
0.127866
0.127815
0.127764
0.127714
0.127665
0.127616
0.127568
0.12752
0.127473
0.127426
0.12738
0.127334
0.127288
0.127244
0.127199
0.127156
0.127112
0.127069
0.127027
0.126985
0.126943
0.126902
0.126862
0.126822
0.126782
0.126743
0.126704
0.126665
0.126627
0.12659
0.126553
0.126516
0.12648
0.126444
0.126409
0.126373
0.126339
0.126305
0.126271
0.126237
0.126204
0.126172
0.12614
0.126108
0.126076
0.126045
0.126015
0.125984
0.125955
0.125925
0.125896
0.125868
0.125839
0.125812
0.125784
0.125758
0.125731
0.125705
0.125679
0.125654
0.12563
0.125605
0.125582
0.125558
0.125535
0.125513
0.125491
0.12547
0.125449
0.125429
0.125409
0.125389
0.12537
0.125352
0.125334
0.125317
0.1253
0.125284
0.125268
0.125253
0.125239
0.125225
0.125212
0.125199
0.125187
0.125175
0.125164
0.125153
0.125144
0.125134
0.125126
0.125118
0.12511
0.125103
0.125097
0.125091
0.125086
0.125081
0.125077
0.125073
0.12507
0.125067
0.125065
0.125063
0.125061
0.125059
0.125058
0.125057
0.125056
0.125056
0.125055
0.125054
0.125054
0.1
0.100002
0.100004
0.100007
0.10001
0.100016
0.100024
0.100034
0.100049
0.100068
0.100092
0.100122
0.100158
0.100199
0.100247
0.100302
0.100362
0.100429
0.100502
0.10058
0.100663
0.100751
0.100844
0.100941
0.101042
0.101147
0.101256
0.101368
0.101485
0.101606
0.101731
0.101861
0.101995
0.102135
0.102281
0.102433
0.102591
0.102756
0.102929
0.103109
0.103297
0.103493
0.103697
0.103909
0.10413
0.104359
0.104597
0.104843
0.105098
0.105361
0.105633
0.105912
0.1062
0.106497
0.106801
0.107114
0.107436
0.107765
0.108104
0.10845
0.108806
0.10917
0.109542
0.109924
0.110315
0.110714
0.111122
0.111539
0.111965
0.112399
0.112841
0.113292
0.11375
0.114216
0.114689
0.115168
0.115654
0.116146
0.116643
0.117146
0.117652
0.118162
0.118675
0.119191
0.119709
0.120229
0.120749
0.12127
0.12179
0.12231
0.122828
0.123344
0.123858
0.124369
0.124876
0.125378
0.125877
0.12637
0.126857
0.127338
0.127813
0.128281
0.128741
0.129193
0.129637
0.130072
0.130499
0.130916
0.131323
0.13172
0.132107
0.132484
0.13285
0.133205
0.133549
0.133882
0.134204
0.134514
0.134813
0.135101
0.135377
0.135642
0.135896
0.136138
0.136369
0.13659
0.136799
0.136998
0.137186
0.137364
0.137532
0.13769
0.137838
0.137976
0.138105
0.138225
0.138336
0.138438
0.138532
0.138617
0.138694
0.138764
0.138825
0.138879
0.138926
0.138966
0.138999
0.139025
0.139044
0.139057
0.139064
0.139065
0.13906
0.13905
0.139034
0.139012
0.138986
0.138955
0.138919
0.138878
0.138833
0.138784
0.138731
0.138674
0.138613
0.138549
0.138481
0.13841
0.138337
0.13826
0.138181
0.138099
0.138015
0.137928
0.13784
0.137749
0.137657
0.137562
0.137466
0.137369
0.13727
0.13717
0.137068
0.136965
0.136862
0.136757
0.136651
0.136545
0.136437
0.136329
0.136221
0.136111
0.136001
0.135891
0.135781
0.13567
0.135558
0.135447
0.135336
0.135224
0.135112
0.135001
0.134889
0.134778
0.134667
0.134556
0.134446
0.134336
0.134226
0.134117
0.134008
0.133899
0.133792
0.133684
0.133578
0.133472
0.133367
0.133262
0.133158
0.133054
0.132952
0.13285
0.132749
0.132648
0.132548
0.132449
0.132351
0.132254
0.132157
0.132061
0.131966
0.131871
0.131778
0.131685
0.131593
0.131502
0.131411
0.131322
0.131233
0.131145
0.131058
0.130972
0.130887
0.130802
0.130719
0.130636
0.130554
0.130473
0.130393
0.130314
0.130235
0.130158
0.130081
0.130005
0.12993
0.129856
0.129782
0.12971
0.129638
0.129567
0.129497
0.129427
0.129358
0.12929
0.129223
0.129156
0.12909
0.129025
0.128961
0.128897
0.128834
0.128772
0.12871
0.128649
0.128589
0.12853
0.128471
0.128413
0.128355
0.128298
0.128242
0.128186
0.128131
0.128077
0.128023
0.12797
0.127917
0.127865
0.127814
0.127763
0.127713
0.127663
0.127614
0.127566
0.127518
0.12747
0.127423
0.127376
0.12733
0.127285
0.12724
0.127195
0.127151
0.127107
0.127064
0.127022
0.126979
0.126938
0.126896
0.126855
0.126815
0.126775
0.126735
0.126696
0.126657
0.126619
0.126581
0.126544
0.126507
0.12647
0.126434
0.126398
0.126363
0.126328
0.126294
0.126259
0.126226
0.126192
0.126159
0.126127
0.126095
0.126063
0.126031
0.126001
0.12597
0.12594
0.12591
0.125881
0.125852
0.125823
0.125795
0.125767
0.12574
0.125713
0.125687
0.125661
0.125635
0.12561
0.125586
0.125562
0.125538
0.125515
0.125492
0.12547
0.125448
0.125427
0.125406
0.125386
0.125366
0.125346
0.125328
0.12531
0.125292
0.125275
0.125258
0.125242
0.125227
0.125212
0.125197
0.125184
0.125171
0.125158
0.125146
0.125135
0.125124
0.125114
0.125104
0.125095
0.125086
0.125079
0.125071
0.125065
0.125059
0.125053
0.125048
0.125043
0.125039
0.125036
0.125033
0.12503
0.125028
0.125026
0.125024
0.125023
0.125022
0.125021
0.12502
0.125019
0.125018
0.125018
0.1
0.100002
0.100004
0.100006
0.10001
0.100016
0.100023
0.100034
0.100049
0.100068
0.100092
0.100121
0.100157
0.100198
0.100246
0.1003
0.10036
0.100427
0.100499
0.100576
0.100659
0.100746
0.100839
0.100935
0.101035
0.10114
0.101248
0.10136
0.101476
0.101596
0.101721
0.10185
0.101984
0.102123
0.102268
0.10242
0.102577
0.102742
0.102914
0.103093
0.10328
0.103476
0.103679
0.103891
0.104111
0.10434
0.104578
0.104823
0.105078
0.10534
0.105611
0.105891
0.106178
0.106475
0.106779
0.107092
0.107413
0.107743
0.108081
0.108429
0.108784
0.109149
0.109522
0.109905
0.110296
0.110697
0.111106
0.111524
0.111951
0.112387
0.112831
0.113283
0.113743
0.114211
0.114686
0.115168
0.115656
0.116151
0.116651
0.117155
0.117664
0.118177
0.118693
0.119212
0.119733
0.120256
0.120779
0.121303
0.121826
0.122349
0.12287
0.123389
0.123906
0.124419
0.124929
0.125434
0.125935
0.126431
0.126921
0.127404
0.127881
0.128351
0.128813
0.129267
0.129712
0.130149
0.130577
0.130995
0.131403
0.131802
0.132189
0.132567
0.132933
0.133288
0.133633
0.133966
0.134287
0.134598
0.134896
0.135184
0.13546
0.135724
0.135977
0.136219
0.13645
0.136669
0.136878
0.137076
0.137263
0.13744
0.137607
0.137764
0.137911
0.138048
0.138176
0.138295
0.138405
0.138506
0.138598
0.138682
0.138758
0.138827
0.138887
0.13894
0.138986
0.139024
0.139056
0.139081
0.139099
0.139111
0.139117
0.139117
0.139111
0.139099
0.139082
0.13906
0.139033
0.139
0.138963
0.138922
0.138876
0.138826
0.138772
0.138714
0.138652
0.138587
0.138519
0.138448
0.138373
0.138296
0.138216
0.138133
0.138048
0.137961
0.137872
0.13778
0.137687
0.137592
0.137496
0.137398
0.137298
0.137197
0.137095
0.136992
0.136888
0.136782
0.136676
0.136569
0.136461
0.136353
0.136244
0.136134
0.136024
0.135913
0.135802
0.135691
0.135579
0.135467
0.135355
0.135243
0.135132
0.13502
0.134908
0.134796
0.134685
0.134574
0.134463
0.134353
0.134243
0.134133
0.134024
0.133915
0.133807
0.1337
0.133593
0.133487
0.133381
0.133276
0.133172
0.133068
0.132966
0.132863
0.132762
0.132661
0.132561
0.132462
0.132364
0.132266
0.132169
0.132073
0.131977
0.131883
0.131789
0.131696
0.131604
0.131512
0.131422
0.131332
0.131243
0.131155
0.131068
0.130981
0.130896
0.130811
0.130727
0.130644
0.130562
0.130481
0.130401
0.130321
0.130243
0.130165
0.130088
0.130012
0.129937
0.129862
0.129789
0.129716
0.129644
0.129573
0.129502
0.129432
0.129363
0.129295
0.129227
0.129161
0.129095
0.129029
0.128965
0.128901
0.128837
0.128775
0.128713
0.128652
0.128591
0.128531
0.128472
0.128414
0.128356
0.128299
0.128242
0.128186
0.128131
0.128076
0.128022
0.127969
0.127916
0.127864
0.127812
0.127761
0.127711
0.127661
0.127611
0.127562
0.127514
0.127466
0.127419
0.127372
0.127325
0.12728
0.127234
0.127189
0.127145
0.127101
0.127057
0.127014
0.126972
0.126929
0.126888
0.126846
0.126806
0.126765
0.126725
0.126686
0.126647
0.126608
0.12657
0.126532
0.126495
0.126458
0.126421
0.126385
0.126349
0.126314
0.126279
0.126244
0.12621
0.126176
0.126143
0.12611
0.126077
0.126045
0.126013
0.125982
0.125951
0.12592
0.12589
0.12586
0.125831
0.125802
0.125773
0.125745
0.125718
0.12569
0.125663
0.125637
0.125611
0.125586
0.12556
0.125536
0.125512
0.125488
0.125465
0.125442
0.12542
0.125398
0.125377
0.125356
0.125336
0.125316
0.125297
0.125278
0.12526
0.125242
0.125225
0.125209
0.125193
0.125177
0.125163
0.125148
0.125135
0.125122
0.125109
0.125097
0.125086
0.125075
0.125065
0.125056
0.125047
0.125039
0.125031
0.125024
0.125017
0.125012
0.125006
0.125001
0.124997
0.124993
0.12499
0.124987
0.124984
0.124982
0.12498
0.124979
0.124977
0.124976
0.124975
0.124974
0.124973
0.124973
0.1
0.100002
0.100004
0.100006
0.10001
0.100016
0.100023
0.100034
0.100049
0.100067
0.100091
0.100121
0.100156
0.100197
0.100244
0.100298
0.100358
0.100424
0.100495
0.100572
0.100654
0.100741
0.100832
0.100928
0.101028
0.101131
0.101239
0.10135
0.101466
0.101585
0.101709
0.101837
0.10197
0.102109
0.102253
0.102404
0.102561
0.102725
0.102896
0.103075
0.103261
0.103456
0.103659
0.10387
0.104089
0.104317
0.104554
0.104799
0.105053
0.105315
0.105586
0.105865
0.106152
0.106448
0.106752
0.107065
0.107387
0.107717
0.108055
0.108403
0.108759
0.109124
0.109498
0.109882
0.110274
0.110676
0.111087
0.111506
0.111935
0.112372
0.112818
0.113273
0.113735
0.114205
0.114683
0.115168
0.115659
0.116156
0.116659
0.117166
0.117679
0.118195
0.118714
0.119237
0.119761
0.120287
0.120814
0.121341
0.121868
0.122394
0.122919
0.123442
0.123962
0.124479
0.124992
0.125501
0.126005
0.126503
0.126996
0.127482
0.127962
0.128434
0.128898
0.129354
0.129802
0.13024
0.13067
0.131089
0.131499
0.131898
0.132287
0.132664
0.133031
0.133387
0.133732
0.134065
0.134386
0.134697
0.134995
0.135282
0.135557
0.135821
0.136074
0.136315
0.136544
0.136763
0.136971
0.137168
0.137354
0.13753
0.137696
0.137851
0.137997
0.138133
0.13826
0.138377
0.138486
0.138585
0.138676
0.138759
0.138834
0.138901
0.13896
0.139011
0.139056
0.139093
0.139123
0.139147
0.139164
0.139175
0.139179
0.139178
0.139171
0.139158
0.13914
0.139116
0.139088
0.139054
0.139016
0.138974
0.138927
0.138875
0.13882
0.138761
0.138699
0.138633
0.138564
0.138491
0.138416
0.138337
0.138257
0.138173
0.138087
0.137999
0.137909
0.137817
0.137723
0.137628
0.13753
0.137431
0.137331
0.13723
0.137127
0.137023
0.136918
0.136812
0.136705
0.136598
0.136489
0.13638
0.13627
0.13616
0.13605
0.135938
0.135827
0.135715
0.135603
0.135491
0.135379
0.135266
0.135154
0.135042
0.134929
0.134817
0.134706
0.134594
0.134483
0.134372
0.134262
0.134152
0.134043
0.133934
0.133825
0.133718
0.13361
0.133504
0.133398
0.133293
0.133188
0.133084
0.132981
0.132879
0.132777
0.132676
0.132576
0.132476
0.132378
0.13228
0.132182
0.132086
0.13199
0.131895
0.131801
0.131708
0.131616
0.131524
0.131433
0.131343
0.131254
0.131166
0.131078
0.130992
0.130906
0.130821
0.130737
0.130654
0.130572
0.13049
0.13041
0.13033
0.130251
0.130173
0.130096
0.13002
0.129944
0.129869
0.129795
0.129722
0.12965
0.129578
0.129508
0.129437
0.129368
0.1293
0.129232
0.129165
0.129098
0.129033
0.128968
0.128904
0.12884
0.128777
0.128715
0.128653
0.128593
0.128533
0.128473
0.128414
0.128356
0.128299
0.128242
0.128185
0.12813
0.128075
0.12802
0.127967
0.127913
0.127861
0.127809
0.127757
0.127706
0.127656
0.127606
0.127557
0.127508
0.12746
0.127412
0.127365
0.127318
0.127272
0.127226
0.127181
0.127136
0.127091
0.127047
0.127004
0.126961
0.126918
0.126876
0.126834
0.126793
0.126752
0.126712
0.126672
0.126632
0.126593
0.126555
0.126516
0.126479
0.126441
0.126404
0.126367
0.126331
0.126295
0.12626
0.126225
0.12619
0.126156
0.126122
0.126089
0.126055
0.126023
0.12599
0.125958
0.125927
0.125896
0.125865
0.125835
0.125805
0.125775
0.125746
0.125718
0.125689
0.125662
0.125634
0.125607
0.125581
0.125555
0.125529
0.125504
0.125479
0.125455
0.125431
0.125408
0.125385
0.125362
0.125341
0.125319
0.125298
0.125278
0.125258
0.125239
0.12522
0.125202
0.125185
0.125167
0.125151
0.125135
0.12512
0.125105
0.125091
0.125077
0.125064
0.125051
0.12504
0.125028
0.125018
0.125008
0.124999
0.12499
0.124982
0.124974
0.124967
0.124961
0.124955
0.12495
0.124945
0.124941
0.124937
0.124934
0.124931
0.124928
0.124926
0.124924
0.124923
0.124922
0.124921
0.12492
0.124919
0.124919
0.1
0.100002
0.100004
0.100006
0.10001
0.100015
0.100023
0.100034
0.100048
0.100067
0.100091
0.10012
0.100155
0.100195
0.100242
0.100296
0.100355
0.10042
0.100491
0.100567
0.100649
0.100735
0.100825
0.10092
0.101019
0.101122
0.101229
0.101339
0.101453
0.101572
0.101695
0.101822
0.101955
0.102092
0.102236
0.102385
0.102542
0.102705
0.102875
0.103053
0.103239
0.103432
0.103634
0.103845
0.104064
0.104291
0.104527
0.104771
0.105024
0.105286
0.105556
0.105835
0.106122
0.106417
0.106721
0.107034
0.107355
0.107686
0.108024
0.108372
0.108729
0.109095
0.10947
0.109855
0.110249
0.110652
0.111064
0.111485
0.111916
0.112355
0.112804
0.11326
0.113725
0.114198
0.114679
0.115167
0.115661
0.116161
0.116668
0.117179
0.117695
0.118215
0.118738
0.119265
0.119793
0.120323
0.120854
0.121386
0.121917
0.122447
0.122976
0.123503
0.124027
0.124548
0.125065
0.125577
0.126085
0.126587
0.127083
0.127572
0.128055
0.12853
0.128997
0.129455
0.129905
0.130346
0.130777
0.131198
0.131609
0.132009
0.132399
0.132778
0.133145
0.133501
0.133846
0.134179
0.134501
0.134811
0.135109
0.135395
0.13567
0.135933
0.136185
0.136425
0.136654
0.136872
0.137078
0.137274
0.137459
0.137633
0.137798
0.137952
0.138096
0.138231
0.138356
0.138472
0.138579
0.138677
0.138767
0.138848
0.138921
0.138986
0.139044
0.139094
0.139137
0.139172
0.139201
0.139223
0.139238
0.139248
0.139251