# vtk DataFile Version 3.0
LBM Fluid Grid
ASCII
DATASET STRUCTURED_POINTS
DIMENSIONS 400 150 1
ORIGIN 0 0 0
SPACING 1 1 1
POINT_DATA 60000
SCALARS VelocityMagnitude double 1
LOOKUP_TABLE default
0.1
0.0999414
0.0998913
0.0998517
0.0998238
0.0998087
0.0998067
0.0998179
0.0998418
0.0998775
0.0999238
0.0999794
0.100042
0.100111
0.100185
0.10026
0.100337
0.100414
0.10049
0.100565
0.100638
0.10071
0.100782
0.100854
0.100927
0.101002
0.101082
0.101166
0.101257
0.101354
0.10146
0.101576
0.1017
0.101835
0.10198
0.102135
0.1023
0.102474
0.102659
0.102852
0.103053
0.103262
0.103478
0.103701
0.103931
0.104167
0.104409
0.104656
0.10491
0.10517
0.105437
0.10571
0.10599
0.106279
0.106575
0.106881
0.107195
0.107519
0.107853
0.108198
0.108553
0.108918
0.109294
0.109681
0.110078
0.110485
0.110902
0.111328
0.111763
0.112207
0.112659
0.113117
0.113583
0.114055
0.114533
0.115016
0.115504
0.115996
0.116493
0.116993
0.117496
0.118001
0.11851
0.11902
0.119532
0.120045
0.12056
0.121075
0.12159
0.122105
0.12262
0.123133
0.123645
0.124154
0.124661
0.125164
0.125663
0.126157
0.126647
0.12713
0.127608
0.128078
0.12854
0.128995
0.12944
0.129877
0.130304
0.130721
0.131128
0.131525
0.13191
0.132285
0.132648
0.133
0.133341
0.13367
0.133988
0.134295
0.13459
0.134874
0.135147
0.135409
0.13566
0.135901
0.136131
0.136351
0.13656
0.136759
0.136948
0.137128
0.137298
0.137458
0.137609
0.137751
0.137883
0.138007
0.138122
0.138227
0.138325
0.138414
0.138494
0.138566
0.13863
0.138687
0.138735
0.138776
0.13881
0.138837
0.138856
0.138869
0.138876
0.138876
0.138871
0.138859
0.138842
0.13882
0.138793
0.138761
0.138725
0.138684
0.138639
0.138591
0.138538
0.138482
0.138423
0.138361
0.138296
0.138227
0.138157
0.138083
0.138007
0.137928
0.137848
0.137765
0.137679
0.137592
0.137503
0.137412
0.137319
0.137224
0.137128
0.13703
0.13693
0.136829
0.136727
0.136623
0.136519
0.136413
0.136307
0.136199
0.136091
0.135983
0.135874
0.135764
0.135654
0.135544
0.135434
0.135324
0.135214
0.135104
0.134994
0.134884
0.134775
0.134666
0.134557
0.134449
0.134341
0.134233
0.134126
0.134019
0.133913
0.133808
0.133702
0.133597
0.133493
0.133389
0.133286
0.133183
0.13308
0.132978
0.132877
0.132776
0.132676
0.132576
0.132477
0.132378
0.13228
0.132183
0.132086
0.131991
0.131895
0.131801
0.131707
0.131614
0.131522
0.131431
0.131341
0.131251
0.131162
0.131074
0.130987
0.130901
0.130815
0.13073
0.130646
0.130563
0.13048
0.130399
0.130317
0.130237
0.130157
0.130079
0.13
0.129923
0.129846
0.12977
0.129695
0.12962
0.129546
0.129473
0.1294
0.129329
0.129258
0.129188
0.129118
0.129049
0.128981
0.128914
0.128848
0.128782
0.128717
0.128653
0.12859
0.128527
0.128465
0.128404
0.128343
0.128283
0.128224
0.128165
0.128107
0.12805
0.127993
0.127937
0.127881
0.127826
0.127771
0.127717
0.127664
0.127611
0.127558
0.127506
0.127455
0.127404
0.127353
0.127303
0.127254
0.127205
0.127156
0.127108
0.127061
0.127014
0.126967
0.126921
0.126875
0.12683
0.126785
0.126741
0.126697
0.126654
0.126611
0.126569
0.126527
0.126485
0.126444
0.126403
0.126363
0.126323
0.126284
0.126245
0.126206
0.126168
0.12613
0.126093
0.126056
0.126019
0.125983
0.125947
0.125912
0.125877
0.125843
0.125809
0.125776
0.125743
0.125711
0.125679
0.125647
0.125616
0.125586
0.125556
0.125526
0.125497
0.125469
0.125441
0.125414
0.125387
0.12536
0.125334
0.125308
0.125283
0.125259
0.125235
0.125211
0.125188
0.125165
0.125143
0.125121
0.1251
0.125079
0.125059
0.125039
0.125019
0.125
0.124982
0.124964
0.124946
0.124929
0.124912
0.124896
0.124881
0.124866
0.124851
0.124837
0.124824
0.124811
0.124799
0.124787
0.124775
0.124765
0.124755
0.124745
0.124736
0.124728
0.12472
0.124713
0.124707
0.124701
0.124695
0.12469
0.124686
0.124682
0.124679
0.124676
0.124673
0.124671
0.12467
0.124668
0.124667
0.124666
0.124666
0.1
0.0999413
0.0998912
0.0998516
0.0998237
0.0998085
0.0998066
0.0998178
0.0998416
0.0998774
0.0999237
0.0999793
0.100042
0.100111
0.100185
0.10026
0.100337
0.100414
0.10049
0.100565
0.100638
0.100711
0.100782
0.100854
0.100927
0.101003
0.101082
0.101167
0.101257
0.101355
0.101461
0.101576
0.101701
0.101836
0.101981
0.102136
0.102301
0.102476
0.10266
0.102853
0.103054
0.103263
0.10348
0.103703
0.103933
0.104168
0.10441
0.104658
0.104912
0.105172
0.105438
0.105712
0.105992
0.106281
0.106577
0.106882
0.107197
0.107521
0.107855
0.108199
0.108554
0.10892
0.109296
0.109682
0.110079
0.110486
0.110903
0.111329
0.111764
0.112208
0.112659
0.113118
0.113583
0.114055
0.114533
0.115016
0.115504
0.115996
0.116492
0.116991
0.117494
0.118
0.118508
0.119018
0.11953
0.120043
0.120557
0.121072
0.121587
0.122102
0.122616
0.123129
0.12364
0.124149
0.124655
0.125158
0.125657
0.126152
0.126641
0.127124
0.127601
0.128071
0.128533
0.128988
0.129433
0.12987
0.130297
0.130714
0.131121
0.131517
0.131903
0.132277
0.132641
0.132993
0.133333
0.133663
0.133981
0.134287
0.134582
0.134867
0.13514
0.135402
0.135653
0.135894
0.136124
0.136343
0.136553
0.136752
0.136941
0.137121
0.137291
0.137451
0.137602
0.137744
0.137877
0.138001
0.138115
0.138221
0.138319
0.138408
0.138488
0.13856
0.138625
0.138681
0.13873
0.138771
0.138805
0.138832
0.138851
0.138864
0.138871
0.138871
0.138866
0.138855
0.138838
0.138816
0.138789
0.138757
0.138721
0.13868
0.138635
0.138587
0.138535
0.138479
0.13842
0.138357
0.138292
0.138224
0.138153
0.13808
0.138004
0.137925
0.137845
0.137762
0.137677
0.137589
0.1375
0.137409
0.137316
0.137221
0.137125
0.137027
0.136928
0.136827
0.136725
0.136621
0.136517
0.136411
0.136305
0.136197
0.136089
0.135981
0.135872
0.135762
0.135652
0.135542
0.135432
0.135322
0.135212
0.135102
0.134992
0.134882
0.134773
0.134664
0.134555
0.134447
0.134339
0.134232
0.134125
0.134018
0.133912
0.133806
0.133701
0.133596
0.133492
0.133388
0.133284
0.133182
0.133079
0.132977
0.132876
0.132775
0.132675
0.132575
0.132476
0.132377
0.132279
0.132182
0.132085
0.131989
0.131894
0.1318
0.131706
0.131613
0.131521
0.13143
0.13134
0.13125
0.131161
0.131073
0.130986
0.1309
0.130814
0.130729
0.130645
0.130562
0.130479
0.130398
0.130317
0.130236
0.130157
0.130078
0.13
0.129922
0.129845
0.129769
0.129694
0.129619
0.129545
0.129472
0.1294
0.129328
0.129257
0.129187
0.129118
0.129049
0.128981
0.128914
0.128847
0.128782
0.128717
0.128653
0.128589
0.128527
0.128465
0.128403
0.128343
0.128283
0.128224
0.128165
0.128107
0.12805
0.127993
0.127937
0.127881
0.127826
0.127771
0.127717
0.127664
0.127611
0.127558
0.127506
0.127455
0.127404
0.127353
0.127303
0.127254
0.127205
0.127156
0.127108
0.127061
0.127014
0.126967
0.126921
0.126876
0.126831
0.126786
0.126742
0.126698
0.126655
0.126612
0.126569
0.126527
0.126486
0.126445
0.126404
0.126364
0.126324
0.126285
0.126246
0.126207
0.126169
0.126131
0.126094
0.126057
0.12602
0.125984
0.125948
0.125913
0.125879
0.125844
0.125811
0.125777
0.125744
0.125712
0.12568
0.125649
0.125618
0.125587
0.125557
0.125528
0.125499
0.125471
0.125443
0.125415
0.125388
0.125362
0.125336
0.12531
0.125285
0.125261
0.125237
0.125213
0.12519
0.125167
0.125145
0.125123
0.125102
0.125081
0.125061
0.125041
0.125022
0.125003
0.124984
0.124966
0.124949
0.124932
0.124915
0.124899
0.124884
0.124869
0.124854
0.12484
0.124827
0.124814
0.124802
0.12479
0.124779
0.124768
0.124758
0.124749
0.12474
0.124731
0.124724
0.124717
0.12471
0.124704
0.124699
0.124694
0.12469
0.124686
0.124682
0.12468
0.124677
0.124675
0.124673
0.124672
0.124671
0.12467
0.12467
0.1
0.0999414
0.0998913
0.0998517
0.0998238
0.0998087
0.0998067
0.0998179
0.0998418
0.0998775
0.0999238
0.0999794
0.100042
0.100111
0.100185
0.10026
0.100337
0.100414
0.10049
0.100565
0.100638
0.10071
0.100782
0.100854
0.100927
0.101002
0.101082
0.101166
0.101257
0.101354
0.10146
0.101576
0.1017
0.101835
0.10198
0.102135
0.1023
0.102474
0.102659
0.102852
0.103053
0.103262
0.103478
0.103701
0.103931
0.104167
0.104409
0.104656
0.10491
0.10517
0.105437
0.10571
0.10599
0.106279
0.106575
0.106881
0.107195
0.107519
0.107853
0.108198
0.108553
0.108918
0.109294
0.109681
0.110078
0.110485
0.110902
0.111328
0.111763
0.112207
0.112659
0.113117
0.113583
0.114055
0.114533
0.115016
0.115504
0.115996
0.116493
0.116993
0.117496
0.118001
0.11851
0.11902
0.119532
0.120045
0.12056
0.121075
0.12159
0.122105
0.12262
0.123133
0.123645
0.124154
0.124661
0.125164
0.125663
0.126157
0.126647
0.12713
0.127608
0.128078
0.12854
0.128995
0.12944
0.129877
0.130304
0.130721
0.131128
0.131525
0.13191
0.132285
0.132648
0.133
0.133341
0.13367
0.133988
0.134295
0.13459
0.134874
0.135147
0.135409
0.13566
0.135901
0.136131
0.136351
0.13656
0.136759
0.136948
0.137128
0.137298
0.137458
0.137609
0.137751
0.137883
0.138007
0.138122
0.138227
0.138325
0.138414
0.138494
0.138566
0.13863
0.138687
0.138735
0.138776
0.13881
0.138837
0.138856
0.138869
0.138876
0.138876
0.138871
0.138859
0.138842
0.13882
0.138793
0.138761
0.138725
0.138684
0.138639
0.138591
0.138538
0.138482
0.138423
0.138361
0.138296
0.138227
0.138157
0.138083
0.138007
0.137928
0.137848
0.137765
0.137679
0.137592
0.137503
0.137412
0.137319
0.137224
0.137128
0.13703
0.13693
0.136829
0.136727
0.136623
0.136519
0.136413
0.136307
0.136199
0.136091
0.135983
0.135874
0.135764
0.135654
0.135544
0.135434
0.135324
0.135214
0.135104
0.134994
0.134884
0.134775
0.134666
0.134557
0.134449
0.134341
0.134233
0.134126
0.134019
0.133913
0.133808
0.133702
0.133597
0.133493
0.133389
0.133286
0.133183
0.13308
0.132978
0.132877
0.132776
0.132676
0.132576
0.132477
0.132378
0.13228
0.132183
0.132086
0.131991
0.131895
0.131801
0.131707
0.131614
0.131522
0.131431
0.131341
0.131251
0.131162
0.131074
0.130987
0.130901
0.130815
0.13073
0.130646
0.130563
0.13048
0.130398
0.130317
0.130237
0.130157
0.130079
0.13
0.129923
0.129846
0.12977
0.129695
0.12962
0.129546
0.129473
0.1294
0.129329
0.129258
0.129188
0.129118
0.129049
0.128981
0.128914
0.128848
0.128782
0.128717
0.128653
0.12859
0.128527
0.128465
0.128404
0.128343
0.128283
0.128224
0.128165
0.128107
0.12805
0.127993
0.127937
0.127881
0.127826
0.127771
0.127717
0.127664
0.127611
0.127558
0.127506
0.127455
0.127404
0.127353
0.127303
0.127254
0.127205
0.127156
0.127108
0.127061
0.127014
0.126967
0.126921
0.126875
0.12683
0.126785
0.126741
0.126697
0.126654
0.126611
0.126569
0.126527
0.126485
0.126444
0.126403
0.126363
0.126323
0.126284
0.126245
0.126206
0.126168
0.12613
0.126093
0.126056
0.126019
0.125983
0.125947
0.125912
0.125877
0.125843
0.125809
0.125776
0.125743
0.125711
0.125679
0.125647
0.125616
0.125586
0.125556
0.125526
0.125497
0.125469
0.125441
0.125414
0.125387
0.12536
0.125334
0.125309
0.125283
0.125259
0.125235
0.125211
0.125188
0.125165
0.125143
0.125121
0.1251
0.125079
0.125059
0.125039
0.125019
0.125
0.124982
0.124964
0.124946
0.124929
0.124913
0.124896
0.124881
0.124866
0.124851
0.124837
0.124824
0.124811
0.124799
0.124787
0.124776
0.124765
0.124755
0.124745
0.124736
0.124728
0.12472
0.124713
0.124707
0.124701
0.124695
0.12469
0.124686
0.124682
0.124679
0.124676
0.124674
0.124671
0.12467
0.124668
0.124667
0.124666
0.124666
0.1
0.0999415
0.0998916
0.099852
0.0998242
0.0998091
0.0998072
0.0998184
0.0998423
0.0998779
0.0999242
0.0999796
0.100043
0.100111
0.100184
0.10026
0.100337
0.100413
0.100489
0.100564
0.100637
0.100709
0.10078
0.100852
0.100925
0.101001
0.10108
0.101164
0.101254
0.101352
0.101458
0.101573
0.101698
0.101832
0.101977
0.102132
0.102297
0.102471
0.102655
0.102848
0.103049
0.103258
0.103474
0.103697
0.103926
0.104162
0.104404
0.104651
0.104905
0.105165
0.105431
0.105704
0.105985
0.106273
0.10657
0.106875
0.10719
0.107514
0.107848
0.108193
0.108548
0.108914
0.10929
0.109677
0.110074
0.110482
0.110899
0.111325
0.111761
0.112205
0.112657
0.113116
0.113583
0.114055
0.114533
0.115017
0.115506
0.115999
0.116496
0.116996
0.1175
0.118006
0.118515
0.119026
0.119539
0.120054
0.120569
0.121085
0.121601
0.122117
0.122632
0.123146
0.123658
0.124169
0.124676
0.12518
0.12568
0.126175
0.126665
0.127149
0.127627
0.128097
0.12856
0.129015
0.129461
0.129898
0.130326
0.130743
0.13115
0.131547
0.131933
0.132307
0.132671
0.133023
0.133364
0.133693
0.134011
0.134318
0.134613
0.134897
0.13517
0.135432
0.135683
0.135923
0.136153
0.136372
0.136581
0.13678
0.13697
0.137149
0.137318
0.137478
0.137629
0.13777
0.137903
0.138026
0.13814
0.138246
0.138343
0.138431
0.138511
0.138583
0.138647
0.138703
0.138751
0.138792
0.138825
0.138852
0.138871
0.138884
0.13889
0.13889
0.138884
0.138873
0.138856
0.138833
0.138806
0.138774
0.138737
0.138696
0.138651
0.138602
0.13855
0.138493
0.138434
0.138372
0.138306
0.138238
0.138166
0.138093
0.138016
0.137938
0.137857
0.137773
0.137688
0.137601
0.137511
0.13742
0.137327
0.137232
0.137135
0.137037
0.136937
0.136836
0.136734
0.13663
0.136526
0.13642
0.136313
0.136206
0.136098
0.135989
0.13588
0.13577
0.13566
0.13555
0.13544
0.135329
0.135219
0.135109
0.134999
0.134889
0.13478
0.134671
0.134562
0.134453
0.134345
0.134238
0.134131
0.134024
0.133918
0.133812
0.133707
0.133602
0.133497
0.133393
0.13329
0.133187
0.133084
0.132982
0.132881
0.13278
0.132679
0.13258
0.13248
0.132382
0.132284
0.132186
0.13209
0.131994
0.131899
0.131804
0.131711
0.131618
0.131526
0.131434
0.131344
0.131254
0.131165
0.131077
0.13099
0.130903
0.130818
0.130733
0.130649
0.130565
0.130483
0.130401
0.13032
0.130239
0.13016
0.130081
0.130003
0.129925
0.129848
0.129772
0.129697
0.129622
0.129548
0.129475
0.129402
0.129331
0.12926
0.129189
0.12912
0.129051
0.128983
0.128916
0.128849
0.128784
0.128719
0.128654
0.128591
0.128528
0.128466
0.128405
0.128344
0.128284
0.128225
0.128166
0.128108
0.12805
0.127994
0.127937
0.127882
0.127826
0.127772
0.127718
0.127664
0.127611
0.127558
0.127506
0.127455
0.127404
0.127353
0.127303
0.127253
0.127204
0.127155
0.127107
0.12706
0.127013
0.126966
0.12692
0.126874
0.126829
0.126784
0.12674
0.126696
0.126652
0.126609
0.126567
0.126525
0.126483
0.126442
0.126401
0.126361
0.126321
0.126281
0.126242
0.126203
0.126165
0.126127
0.126089
0.126052
0.126016
0.12598
0.125944
0.125908
0.125874
0.125839
0.125805
0.125772
0.125739
0.125706
0.125674
0.125643
0.125612
0.125581
0.125551
0.125521
0.125492
0.125464
0.125436
0.125408
0.125381
0.125354
0.125328
0.125303
0.125277
0.125253
0.125229
0.125205
0.125181
0.125159
0.125136
0.125114
0.125093
0.125072
0.125051
0.125031
0.125012
0.124993
0.124974
0.124956
0.124938
0.124921
0.124904
0.124888
0.124872
0.124857
0.124842
0.124828
0.124815
0.124802
0.124789
0.124777
0.124766
0.124755
0.124745
0.124735
0.124726
0.124718
0.12471
0.124703
0.124696
0.12469
0.124685
0.12468
0.124675
0.124671
0.124668
0.124665
0.124662
0.12466
0.124659
0.124657
0.124656
0.124655
0.124655
0.1
0.0999417
0.0998919
0.0998525
0.0998249
0.0998099
0.099808
0.0998193
0.0998431
0.0998787
0.0999248
0.0999801
0.100043
0.100111
0.100184
0.100259
0.100336
0.100412
0.100488
0.100562
0.100635
0.100707
0.100778
0.100849
0.100922
0.100997
0.101077
0.101161
0.101251
0.101349
0.101454
0.101569
0.101693
0.101828
0.101972
0.102127
0.102291
0.102466
0.102649
0.102842
0.103043
0.103251
0.103467
0.10369
0.103919
0.104154
0.104396
0.104643
0.104896
0.105156
0.105422
0.105695
0.105976
0.106264
0.106561
0.106866
0.107181
0.107505
0.10784
0.108185
0.10854
0.108906
0.109283
0.10967
0.110068
0.110476
0.110894
0.111321
0.111757
0.112202
0.112654
0.113114
0.113581
0.114055
0.114534
0.115019
0.115508
0.116002
0.1165
0.117002
0.117507
0.118015
0.118525
0.119037
0.119552
0.120067
0.120584
0.121101
0.121619
0.122136
0.122652
0.123168
0.123682
0.124193
0.124701
0.125206
0.125707
0.126204
0.126695
0.12718
0.127658
0.12813
0.128594
0.129049
0.129496
0.129934
0.130362
0.13078
0.131187
0.131584
0.13197
0.132345
0.132709
0.133061
0.133402
0.133731
0.134049
0.134356
0.134651
0.134935
0.135208
0.135469
0.13572
0.13596
0.13619
0.136409
0.136617
0.136816
0.137005
0.137184
0.137353
0.137512
0.137662
0.137803
0.137935
0.138058
0.138171
0.138276
0.138373
0.138461
0.13854
0.138612
0.138675
0.13873
0.138778
0.138818
0.138851
0.138877
0.138896
0.138908
0.138914
0.138914
0.138907
0.138895
0.138878
0.138855
0.138827
0.138794
0.138757
0.138716
0.138671
0.138621
0.138568
0.138512
0.138452
0.138389
0.138323
0.138254
0.138183
0.138109
0.138032
0.137953
0.137872
0.137788
0.137703
0.137615
0.137525
0.137433
0.13734
0.137245
0.137148
0.13705
0.13695
0.136848
0.136746
0.136642
0.136537
0.136431
0.136324
0.136216
0.136108
0.135999
0.13589
0.13578
0.13567
0.135559
0.135449
0.135339
0.135228
0.135118
0.135008
0.134898
0.134788
0.134679
0.13457
0.134462
0.134353
0.134246
0.134138
0.134032
0.133925
0.133819
0.133714
0.133609
0.133504
0.1334
0.133297
0.133193
0.133091
0.132989
0.132887
0.132786
0.132686
0.132586
0.132486
0.132388
0.13229
0.132192
0.132095
0.131999
0.131904
0.13181
0.131716
0.131623
0.131531
0.131439
0.131349
0.131259
0.13117
0.131082
0.130995
0.130908
0.130822
0.130737
0.130653
0.13057
0.130487
0.130405
0.130324
0.130243
0.130164
0.130085
0.130006
0.129929
0.129852
0.129776
0.1297
0.129625
0.129551
0.129478
0.129405
0.129333
0.129262
0.129192
0.129122
0.129054
0.128985
0.128918
0.128852
0.128786
0.128721
0.128656
0.128593
0.12853
0.128468
0.128406
0.128346
0.128285
0.128226
0.128167
0.128109
0.128051
0.127994
0.127938
0.127882
0.127827
0.127772
0.127718
0.127664
0.127611
0.127558
0.127506
0.127454
0.127403
0.127352
0.127302
0.127252
0.127203
0.127154
0.127106
0.127058
0.127011
0.126964
0.126918
0.126872
0.126826
0.126781
0.126737
0.126693
0.126649
0.126606
0.126563
0.126521
0.126479
0.126438
0.126397
0.126356
0.126316
0.126277
0.126237
0.126198
0.12616
0.126122
0.126084
0.126047
0.12601
0.125974
0.125938
0.125902
0.125867
0.125833
0.125798
0.125765
0.125732
0.125699
0.125667
0.125635
0.125604
0.125573
0.125543
0.125513
0.125484
0.125455
0.125427
0.125399
0.125372
0.125345
0.125318
0.125293
0.125267
0.125242
0.125218
0.125194
0.12517
0.125147
0.125125
0.125103
0.125081
0.12506
0.125039
0.125019
0.124999
0.12498
0.124961
0.124942
0.124924
0.124907
0.12489
0.124874
0.124858
0.124842
0.124827
0.124813
0.124799
0.124786
0.124773
0.124761
0.12475
0.124739
0.124728
0.124719
0.124709
0.124701
0.124693
0.124685
0.124679
0.124672
0.124667
0.124662
0.124657
0.124653
0.124649
0.124646
0.124644
0.124642
0.12464
0.124638
0.124637
0.124636
0.124636
0.1
0.099942
0.0998925
0.0998533
0.0998258
0.099811
0.0998092
0.0998204
0.0998442
0.0998797
0.0999256
0.0999807
0.100043
0.100111
0.100184
0.100259
0.100335
0.10041
0.100486
0.100559
0.100632
0.100703
0.100774
0.100846
0.100918
0.100993
0.101072
0.101156
0.101246
0.101343
0.101449
0.101563
0.101687
0.101821
0.101966
0.10212
0.102284
0.102458
0.102641
0.102833
0.103034
0.103242
0.103457
0.103679
0.103908
0.104143
0.104384
0.104631
0.104884
0.105144
0.10541
0.105683
0.105963
0.106251
0.106548
0.106854
0.107168
0.107493
0.107828
0.108173
0.108529
0.108895
0.109273
0.109661
0.110059
0.110468
0.110886
0.111314
0.111751
0.112197
0.11265
0.113112
0.11358
0.114054
0.114535
0.115021
0.115512
0.116007
0.116507
0.11701
0.117517
0.118026
0.118538
0.119053
0.119569
0.120086
0.120605
0.121124
0.121643
0.122163
0.122681
0.123198
0.123714
0.124227
0.124737
0.125244
0.125747
0.126244
0.126737
0.127223
0.127703
0.128176
0.128641
0.129097
0.129545
0.129983
0.130412
0.130831
0.131239
0.131636
0.132023
0.132398
0.132762
0.133114
0.133455
0.133785
0.134103
0.134409
0.134704
0.134988
0.13526
0.135522
0.135772
0.136012
0.136241
0.13646
0.136668
0.136866
0.137054
0.137232
0.137401
0.137559
0.137709
0.137849
0.13798
0.138102
0.138215
0.138319
0.138415
0.138502
0.138581
0.138651
0.138714
0.138769
0.138816
0.138855
0.138887
0.138912
0.138931
0.138942
0.138947
0.138946
0.138939
0.138927
0.138908
0.138885
0.138857
0.138823
0.138786
0.138744
0.138698
0.138648
0.138594
0.138537
0.138477
0.138414
0.138347
0.138278
0.138206
0.138131
0.138054
0.137975
0.137893
0.137809
0.137723
0.137635
0.137544
0.137452
0.137359
0.137263
0.137166
0.137067
0.136967
0.136865
0.136762
0.136658
0.136553
0.136446
0.136339
0.136231
0.136123
0.136013
0.135904
0.135794
0.135683
0.135573
0.135462
0.135351
0.135241
0.13513
0.13502
0.13491
0.1348
0.134691
0.134581
0.134473
0.134364
0.134256
0.134149
0.134042
0.133935
0.133829
0.133724
0.133618
0.133514
0.13341
0.133306
0.133203
0.1331
0.132998
0.132896
0.132795
0.132694
0.132594
0.132494
0.132396
0.132297
0.1322
0.132103
0.132007
0.131912
0.131817
0.131723
0.13163
0.131538
0.131446
0.131356
0.131266
0.131177
0.131088
0.131001
0.130914
0.130828
0.130743
0.130659
0.130575
0.130493
0.130411
0.130329
0.130249
0.130169
0.13009
0.130011
0.129934
0.129857
0.12978
0.129705
0.12963
0.129556
0.129482
0.129409
0.129337
0.129266
0.129196
0.129126
0.129057
0.128989
0.128921
0.128855
0.128789
0.128723
0.128659
0.128595
0.128532
0.12847
0.128408
0.128347
0.128287
0.128227
0.128168
0.12811
0.128052
0.127995
0.127938
0.127882
0.127827
0.127772
0.127718
0.127664
0.12761
0.127557
0.127505
0.127453
0.127402
0.127351
0.1273
0.12725
0.127201
0.127152
0.127103
0.127055
0.127008
0.126961
0.126914
0.126868
0.126822
0.126777
0.126733
0.126688
0.126645
0.126601
0.126558
0.126516
0.126474
0.126432
0.126391
0.12635
0.12631
0.12627
0.12623
0.126191
0.126152
0.126114
0.126076
0.126039
0.126001
0.125965
0.125929
0.125893
0.125858
0.125823
0.125788
0.125755
0.125721
0.125688
0.125656
0.125624
0.125592
0.125561
0.125531
0.125501
0.125471
0.125442
0.125413
0.125385
0.125358
0.125331
0.125304
0.125278
0.125252
0.125227
0.125202
0.125178
0.125154
0.125131
0.125108
0.125086
0.125064
0.125042
0.125021
0.125
0.12498
0.124961
0.124942
0.124923
0.124905
0.124887
0.12487
0.124853
0.124837
0.124821
0.124806
0.124791
0.124777
0.124764
0.124751
0.124738
0.124727
0.124715
0.124705
0.124695
0.124685
0.124676
0.124668
0.12466
0.124653
0.124647
0.124641
0.124636
0.124631
0.124627
0.124623
0.12462
0.124617
0.124615
0.124613
0.124611
0.12461
0.124609
0.124609
0.1
0.0999424
0.0998932
0.0998543
0.099827
0.0998123
0.0998106
0.0998219
0.0998456
0.0998809
0.0999267
0.0999814
0.100044
0.100111
0.100183
0.100257
0.100333
0.100408
0.100483
0.100556
0.100628
0.100699
0.10077
0.100841
0.100913
0.100988
0.101066
0.10115
0.10124
0.101337
0.101442
0.101556
0.10168
0.101813
0.101957
0.102111
0.102275
0.102448
0.102631
0.102822
0.103022
0.103229
0.103444
0.103666
0.103894
0.104129
0.104369
0.104616
0.104868
0.105128
0.105393
0.105666
0.105946
0.106235
0.106531
0.106837
0.107152
0.107477
0.107812
0.108158
0.108514
0.108882
0.10926
0.109648
0.110047
0.110457
0.110876
0.111306
0.111744
0.11219
0.112645
0.113108
0.113577
0.114054
0.114536
0.115023
0.115516
0.116014
0.116515
0.117021
0.117529
0.118041
0.118555
0.119072
0.11959
0.12011
0.120631
0.121153
0.121675
0.122197
0.122718
0.123237
0.123755
0.124271
0.124783
0.125292
0.125797
0.126297
0.126791
0.127279
0.127761
0.128235
0.128701
0.129159
0.129608
0.130047
0.130477
0.130897
0.131305
0.131704
0.13209
0.132466
0.13283
0.133183
0.133524
0.133854
0.134172
0.134478
0.134773
0.135056
0.135328
0.13559
0.13584
0.136079
0.136307
0.136525
0.136733
0.13693
0.137117
0.137295
0.137462
0.13762
0.137769
0.137908
0.138038
0.138159
0.138271
0.138374
0.138469
0.138555
0.138633
0.138703
0.138764
0.138818
0.138864
0.138902
0.138934
0.138958
0.138975
0.138986
0.13899
0.138988
0.13898
0.138967
0.138948
0.138924
0.138894
0.138861
0.138822
0.13878
0.138733
0.138682
0.138628
0.13857
0.138509
0.138445
0.138378
0.138308
0.138235
0.13816
0.138082
0.138002
0.13792
0.137835
0.137749
0.13766
0.137569
0.137477
0.137382
0.137286
0.137188
0.137089
0.136988
0.136886
0.136783
0.136678
0.136573
0.136466
0.136359
0.13625
0.136141
0.136032
0.135922
0.135811
0.135701
0.13559
0.135479
0.135368
0.135257
0.135146
0.135036
0.134925
0.134815
0.134705
0.134596
0.134487
0.134378
0.13427
0.134162
0.134055
0.133948
0.133842
0.133736
0.133631
0.133526
0.133421
0.133318
0.133214
0.133111
0.133009
0.132907
0.132805
0.132705
0.132604
0.132505
0.132406
0.132307
0.13221
0.132113
0.132017
0.131921
0.131826
0.131732
0.131639
0.131547
0.131455
0.131364
0.131274
0.131185
0.131096
0.131009
0.130922
0.130836
0.130751
0.130666
0.130583
0.1305
0.130417
0.130336
0.130255
0.130175
0.130096
0.130017
0.129939
0.129862
0.129786
0.12971
0.129635
0.129561
0.129487
0.129414
0.129342
0.129271
0.1292
0.12913
0.129061
0.128992
0.128925
0.128858
0.128792
0.128726
0.128662
0.128598
0.128535
0.128472
0.12841
0.128349
0.128289
0.128229
0.12817
0.128111
0.128053
0.127996
0.127939
0.127882
0.127827
0.127771
0.127717
0.127663
0.127609
0.127556
0.127503
0.127451
0.127399
0.127348
0.127297
0.127247
0.127197
0.127148
0.127099
0.127051
0.127003
0.126956
0.126909
0.126863
0.126817
0.126772
0.126727
0.126682
0.126638
0.126594
0.126551
0.126508
0.126466
0.126424
0.126382
0.126341
0.126301
0.12626
0.12622
0.126181
0.126142
0.126103
0.126065
0.126027
0.12599
0.125953
0.125916
0.12588
0.125845
0.125809
0.125775
0.125741
0.125707
0.125673
0.125641
0.125608
0.125576
0.125545
0.125514
0.125484
0.125454
0.125425
0.125396
0.125367
0.125339
0.125312
0.125285
0.125258
0.125232
0.125207
0.125182
0.125157
0.125133
0.125109
0.125086
0.125063
0.125041
0.125019
0.124997
0.124976
0.124956
0.124936
0.124916
0.124897
0.124879
0.12486
0.124843
0.124826
0.124809
0.124793
0.124778
0.124763
0.124748
0.124734
0.124721
0.124708
0.124696
0.124684
0.124673
0.124663
0.124653
0.124644
0.124635
0.124627
0.12462
0.124613
0.124607
0.124602
0.124597
0.124592
0.124588
0.124585
0.124582
0.12458
0.124578
0.124576
0.124575
0.124573
0.124573
0.1
0.0999428
0.099894
0.0998555
0.0998285
0.099814
0.0998124
0.0998237
0.0998473
0.0998825
0.0999279
0.0999823
0.100044
0.100111
0.100182
0.100256
0.100331
0.100406
0.10048
0.100552
0.100624
0.100694
0.100764
0.100835
0.100907
0.100981
0.101059
0.101142
0.101232
0.101329
0.101433
0.101547
0.10167
0.101803
0.101947
0.1021
0.102263
0.102436
0.102618
0.102809
0.103008
0.103214
0.103429
0.103649
0.103877
0.104111
0.104351
0.104597
0.104849
0.105108
0.105373
0.105646
0.105926
0.106214
0.106511
0.106817
0.107132
0.107458
0.107793
0.10814
0.108497
0.108864
0.109243
0.109633
0.110033
0.110444
0.110864
0.111295
0.111734
0.112182
0.112639
0.113103
0.113574
0.114052
0.114537
0.115026
0.115521
0.116021
0.116525
0.117033
0.117544
0.118059
0.118576
0.119096
0.119617
0.12014
0.120664
0.121189
0.121714
0.122239
0.122763
0.123285
0.123806
0.124324
0.12484
0.125351
0.125858
0.126361
0.126857
0.127348
0.127831
0.128307
0.128775
0.129235
0.129685
0.130126
0.130557
0.130977
0.131387
0.131786
0.132173
0.13255
0.132914
0.133267
0.133608
0.133938
0.134256
0.134562
0.134857
0.13514
0.135412
0.135672
0.135922
0.13616
0.136388
0.136605
0.136812
0.137008
0.137195
0.137371
0.137537
0.137694
0.137842
0.13798
0.138109
0.138229
0.138339
0.138441
0.138535
0.13862
0.138696
0.138765
0.138825
0.138878
0.138923
0.13896
0.13899
0.139013
0.139029
0.139039
0.139042
0.139039
0.139031
0.139016
0.138996
0.138971
0.138941
0.138906
0.138867
0.138823
0.138775
0.138724
0.138669
0.13861
0.138548
0.138483
0.138415
0.138345
0.138271
0.138195
0.138117
0.138036
0.137953
0.137867
0.13778
0.137691
0.137599
0.137506
0.137411
0.137314
0.137216
0.137116
0.137015
0.136912
0.136808
0.136703
0.136597
0.13649
0.136382
0.136273
0.136164
0.136054
0.135943
0.135833
0.135722
0.13561
0.135499
0.135388
0.135276
0.135165
0.135054
0.134944
0.134833
0.134723
0.134613
0.134504
0.134395
0.134287
0.134179
0.134071
0.133964
0.133857
0.133751
0.133646
0.13354
0.133436
0.133332
0.133228
0.133125
0.133022
0.13292
0.132818
0.132717
0.132617
0.132517
0.132418
0.132319
0.132221
0.132124
0.132028
0.131932
0.131837
0.131743
0.131649
0.131557
0.131465
0.131374
0.131284
0.131194
0.131106
0.131018
0.130931
0.130845
0.130759
0.130675
0.130591
0.130508
0.130425
0.130344
0.130263
0.130182
0.130103
0.130024
0.129946
0.129869
0.129792
0.129716
0.129641
0.129566
0.129492
0.129419
0.129347
0.129275
0.129204
0.129134
0.129065
0.128996
0.128928
0.128861
0.128795
0.128729
0.128664
0.1286
0.128537
0.128474
0.128412
0.12835
0.12829
0.12823
0.12817
0.128111
0.128053
0.127995
0.127938
0.127882
0.127825
0.12777
0.127715
0.12766
0.127606
0.127553
0.1275
0.127448
0.127396
0.127344
0.127293
0.127242
0.127192
0.127143
0.127094
0.127045
0.126997
0.126949
0.126902
0.126855
0.126809
0.126763
0.126718
0.126673
0.126629
0.126585
0.126541
0.126498
0.126455
0.126413
0.126371
0.126329
0.126288
0.126248
0.126207
0.126167
0.126128
0.126089
0.12605
0.126012
0.125974
0.125937
0.1259
0.125864
0.125828
0.125792
0.125757
0.125722
0.125688
0.125654
0.125621
0.125588
0.125556
0.125524
0.125493
0.125462
0.125432
0.125402
0.125373
0.125344
0.125315
0.125288
0.12526
0.125233
0.125207
0.125181
0.125155
0.12513
0.125105
0.125081
0.125057
0.125034
0.125011
0.124989
0.124967
0.124945
0.124925
0.124904
0.124884
0.124864
0.124845
0.124827
0.124809
0.124791
0.124774
0.124758
0.124742
0.124726
0.124711
0.124697
0.124683
0.12467
0.124657
0.124645
0.124634
0.124623
0.124613
0.124603
0.124594
0.124586
0.124578
0.124571
0.124565
0.124559
0.124553
0.124549
0.124545
0.124541
0.124538
0.124535
0.124533
0.124531
0.12453
0.124529
0.124529
0.1
0.0999434
0.099895
0.0998569
0.0998302
0.0998159
0.0998145
0.0998258
0.0998493
0.0998843
0.0999294
0.0999834
0.100044
0.100111
0.100182
0.100255
0.100329
0.100403
0.100476
0.100548
0.100619
0.100688
0.100758
0.100828
0.100899
0.100973
0.101051
0.101134
0.101223
0.101319
0.101423
0.101536
0.101659
0.101792
0.101934
0.102087
0.102249
0.102421
0.102602
0.102792
0.102991
0.103197
0.10341
0.10363
0.103857
0.10409
0.104329
0.104574
0.104826
0.105084
0.105349
0.105622
0.105902
0.10619
0.106487
0.106793
0.107109
0.107434
0.10777
0.108117
0.108475
0.108844
0.109224
0.109614
0.110016
0.110428
0.11085
0.111281
0.111723
0.112173
0.112631
0.113097
0.11357
0.114051
0.114537
0.11503
0.115527
0.11603
0.116537
0.117048
0.117562
0.11808
0.1186
0.119123
0.119648
0.120175
0.120703
0.121231
0.12176
0.122288
0.122816
0.123342
0.123866
0.124388
0.124907
0.125421
0.125931
0.126436
0.126936
0.127429
0.127915
0.128393
0.128863
0.129324
0.129776
0.130219
0.130651
0.131073
0.131483
0.131883
0.132271
0.132648
0.133013
0.133367
0.133708
0.134038
0.134356
0.134662
0.134956
0.135239
0.13551
0.13577
0.136019
0.136256
0.136483
0.1367
0.136905
0.137101
0.137286
0.137461
0.137626
0.137782
0.137928
0.138065
0.138192
0.138311
0.13842
0.138521
0.138613
0.138696
0.138771
0.138838
0.138897
0.138948
0.138992
0.139028
0.139057
0.139079
0.139093