# vtk DataFile Version 3.0
LBM Fluid Grid
ASCII
DATASET STRUCTURED_POINTS
DIMENSIONS 400 150 1
ORIGIN 0 0 0
SPACING 1 1 1
POINT_DATA 60000
SCALARS VelocityMagnitude double 1
LOOKUP_TABLE default
0.1
0.100149
0.100342
0.100591
0.100885
0.101205
0.101531
0.101841
0.102119
0.102355
0.102545
0.102689
0.102793
0.102866
0.102918
0.102957
0.102993
0.103032
0.10308
0.103141
0.103219
0.103315
0.103429
0.103562
0.103714
0.103884
0.10407
0.10427
0.104483
0.104706
0.104935
0.105169
0.105405
0.105639
0.10587
0.106095
0.106312
0.106521
0.106721
0.106912
0.107096
0.107273
0.107446
0.107616
0.107788
0.107962
0.108143
0.108331
0.108529
0.108739
0.108961
0.109196
0.109443
0.109703
0.109973
0.110253
0.110542
0.110838
0.111139
0.111444
0.111751
0.112059
0.112367
0.112675
0.112982
0.113287
0.113592
0.113896
0.1142
0.114505
0.114813
0.115123
0.115439
0.11576
0.116087
0.116423
0.116768
0.117122
0.117486
0.117861
0.118246
0.118642
0.119048
0.119463
0.119888
0.120321
0.120761
0.121207
0.121659
0.122115
0.122573
0.123034
0.123496
0.123957
0.124418
0.124877
0.125333
0.125786
0.126235
0.12668
0.12712
0.127556
0.127986
0.128411
0.12883
0.129244
0.129652
0.130054
0.130451
0.130841
0.131225
0.131603
0.131974
0.132338
0.132695
0.133045
0.133386
0.133719
0.134043
0.134357
0.13466
0.134953
0.135234
0.135503
0.135759
0.136001
0.136228
0.136441
0.136639
0.13682
0.136985
0.137134
0.137266
0.13738
0.137478
0.137558
0.137622
0.137669
0.137699
0.137713
0.137712
0.137695
0.137663
0.137618
0.137559
0.137486
0.137402
0.137305
0.137198
0.13708
0.136951
0.136813
0.136666
0.136511
0.136346
0.136174
0.135994
0.135807
0.135613
0.135411
0.135203
0.134988
0.134767
0.13454
0.134307
0.134068
0.133823
0.133574
0.13332
0.133061
0.132798
0.132532
0.132262
0.131989
0.131714
0.131436
0.131157
0.130877
0.130596
0.130313
0.130031
0.129748
0.129464
0.129181
0.128897
0.128614
0.12833
0.128045
0.127761
0.127475
0.127189
0.126902
0.126614
0.126324
0.126033
0.125739
0.125444
0.125147
0.124847
0.124545
0.124239
0.123931
0.12362
0.123306
0.122988
0.122667
0.122342
0.122013
0.12168
0.121343
0.121003
0.120658
0.120309
0.119955
0.119598
0.119236
0.11887
0.118501
0.118127
0.117751
0.117371
0.116988
0.116603
0.116216
0.115828
0.115438
0.115049
0.114659
0.114271
0.113884
0.113499
0.113118
0.11274
0.112367
0.111999
0.111636
0.111281
0.110932
0.110592
0.11026
0.109937
0.109624
0.10932
0.109028
0.108746
0.108475
0.108216
0.107968
0.107733
0.107509
0.107297
0.107098
0.10691
0.106734
0.106569
0.106416
0.106274
0.106143
0.106022
0.105911
0.10581
0.105717
0.105633
0.105557
0.105487
0.105425
0.105368
0.105316
0.105268
0.105225
0.105184
0.105145
0.105108
0.105072
0.105036
0.104999
0.104961
0.104922
0.10488
0.104835
0.104787
0.104735
0.104679
0.104619
0.104554
0.104485
0.104411
0.104333
0.104251
0.104164
0.104073
0.103979
0.103882
0.103781
0.103678
0.103574
0.103467
0.10336
0.103253
0.103145
0.103038
0.102932
0.102827
0.102724
0.102623
0.102525
0.10243
0.102337
0.102248
0.102162
0.10208
0.102002
0.101927
0.101857
0.10179
0.101727
0.101668
0.101612
0.101561
0.101512
0.101468
0.101427
0.101389
0.101354
0.101322
0.101293
0.101266
0.101242
0.101221
0.101201
0.101184
0.101168
0.101154
0.101141
0.101129
0.101119
0.10111
0.101102
0.101095
0.101088
0.101082
0.101077
0.101072
0.101068
0.101064
0.101061
0.101058
0.101056
0.101054
0.101053
0.101052
0.101052
0.101052
0.101053
0.101055
0.101057
0.10106
0.101064
0.10107
0.101076
0.101083
0.101092
0.101102
0.101113
0.101126
0.10114
0.101156
0.101173
0.101192
0.101213
0.101236
0.101261
0.101288
0.101317
0.101347
0.10138
0.101415
0.101451
0.10149
0.10153
0.101572
0.101616
0.101662
0.101709
0.101757
0.101807
0.101857
0.101909
0.101961
0.102013
0.102066
0.102119
0.102171
0.102224
0.102276
0.102327
0.102377
0.102427
0.102474
0.102474
0.1
0.100149
0.100342
0.100592
0.100886
0.101207
0.101532
0.101841
0.10212
0.102356
0.102545
0.102689
0.102794
0.102867
0.102919
0.102958
0.102994
0.103033
0.103082
0.103143
0.103221
0.103316
0.103431
0.103564
0.103716
0.103886
0.104072
0.104272
0.104484
0.104707
0.104936
0.10517
0.105405
0.105639
0.105869
0.106094
0.106311
0.10652
0.10672
0.106911
0.107094
0.107271
0.107443
0.107614
0.107785
0.107959
0.10814
0.108328
0.108526
0.108735
0.108957
0.109192
0.109439
0.109698
0.109969
0.110249
0.110538
0.110834
0.111135
0.111439
0.111746
0.112055
0.112363
0.112671
0.112977
0.113283
0.113588
0.113892
0.114197
0.114502
0.11481
0.115121
0.115437
0.115758
0.116086
0.116422
0.116767
0.117122
0.117487
0.117862
0.118248
0.118644
0.11905
0.119466
0.119891
0.120324
0.120765
0.121211
0.121663
0.122119
0.122578
0.123039
0.123501
0.123963
0.124424
0.124883
0.125339
0.125793
0.126242
0.126687
0.127128
0.127563
0.127994
0.128419
0.128838
0.129252
0.12966
0.130063
0.130459
0.130849
0.131233
0.131611
0.131982
0.132347
0.132704
0.133053
0.133395
0.133728
0.134051
0.134365
0.134669
0.134962
0.135243
0.135511
0.135767
0.136009
0.136236
0.136449
0.136646
0.136828
0.136993
0.137141
0.137273
0.137388
0.137485
0.137565
0.137629
0.137676
0.137706
0.13772
0.137718
0.137702
0.13767
0.137624
0.137565
0.137493
0.137408
0.137312
0.137204
0.137086
0.136957
0.13682
0.136672
0.136517
0.136352
0.13618
0.136
0.135813
0.135618
0.135417
0.135208
0.134994
0.134772
0.134545
0.134312
0.134073
0.133828
0.133579
0.133324
0.133066
0.132803
0.132536
0.132266
0.131993
0.131718
0.13144
0.131161
0.130881
0.130599
0.130317
0.130034
0.129751
0.129467
0.129184
0.1289
0.128616
0.128332
0.128048
0.127763
0.127477
0.127191
0.126904
0.126615
0.126325
0.126034
0.125741
0.125445
0.125148
0.124848
0.124545
0.12424
0.123932
0.12362
0.123306
0.122988
0.122667
0.122342
0.122013
0.12168
0.121343
0.121002
0.120657
0.120308
0.119954
0.119597
0.119235
0.118869
0.118499
0.118126
0.117749
0.11737
0.116987
0.116602
0.116215
0.115826
0.115437
0.115047
0.114658
0.114269
0.113882
0.113498
0.113116
0.112739
0.112365
0.111997
0.111635
0.111279
0.110931
0.11059
0.110258
0.109935
0.109622
0.109319
0.109026
0.108744
0.108474
0.108214
0.107967
0.107731
0.107508
0.107296
0.107096
0.106909
0.106733
0.106568
0.106415
0.106273
0.106142
0.106021
0.10591
0.105809
0.105716
0.105632
0.105555
0.105486
0.105423
0.105366
0.105314
0.105267
0.105223
0.105182
0.105144
0.105107
0.105071
0.105034
0.104998
0.10496
0.10492
0.104878
0.104833
0.104785
0.104733
0.104678
0.104618
0.104553
0.104484
0.10441
0.104332
0.10425
0.104163
0.104073
0.103978
0.103881
0.10378
0.103678
0.103573
0.103467
0.10336
0.103252
0.103145
0.103037
0.102931
0.102827
0.102724
0.102623
0.102525
0.102429
0.102337
0.102248
0.102162
0.10208
0.102002
0.101927
0.101857
0.10179
0.101727
0.101668
0.101612
0.101561
0.101512
0.101468
0.101427
0.101389
0.101354
0.101322
0.101293
0.101267
0.101243
0.101221
0.101202
0.101184
0.101168
0.101154
0.101141
0.10113
0.10112
0.101111
0.101103
0.101095
0.101089
0.101083
0.101078
0.101073
0.101069
0.101065
0.101062
0.101059
0.101057
0.101055
0.101054
0.101053
0.101053
0.101053
0.101054
0.101056
0.101058
0.101061
0.101065
0.101071
0.101077
0.101084
0.101093
0.101102
0.101114
0.101126
0.101141
0.101156
0.101174
0.101193
0.101214
0.101237
0.101262
0.101288
0.101317
0.101348
0.10138
0.101415
0.101452
0.10149
0.101531
0.101573
0.101617
0.101662
0.101709
0.101757
0.101807
0.101857
0.101909
0.101961
0.102013
0.102066
0.102118
0.102171
0.102223
0.102275
0.102326
0.102377
0.102426
0.102473
0.102473
0.1
0.100151
0.100345
0.100595
0.10089
0.10121
0.101535
0.101844
0.102121
0.102357
0.102546
0.10269
0.102795
0.102869
0.102921
0.102962
0.102998
0.103038
0.103087
0.103148
0.103226
0.103322
0.103436
0.103569
0.103721
0.10389
0.104076
0.104276
0.104488
0.10471
0.104938
0.105171
0.105406
0.105639
0.105869
0.106093
0.106309
0.106517
0.106716
0.106906
0.107088
0.107264
0.107436
0.107606
0.107776
0.10795
0.10813
0.108317
0.108515
0.108724
0.108945
0.10918
0.109426
0.109685
0.109956
0.110236
0.110524
0.11082
0.111121
0.111426
0.111733
0.112041
0.11235
0.112658
0.112965
0.113271
0.113576
0.113881
0.114187
0.114493
0.114802
0.115114
0.115431
0.115753
0.116083
0.11642
0.116767
0.117122
0.117488
0.117865
0.118252
0.118649
0.119057
0.119474
0.1199
0.120335
0.120776
0.121224
0.121677
0.122134
0.122594
0.123056
0.123518
0.123981
0.124442
0.124902
0.125359
0.125813
0.126263
0.126709
0.12715
0.127586
0.128017
0.128442
0.128862
0.129276
0.129685
0.130088
0.130484
0.130875
0.131259
0.131637
0.132008
0.132373
0.13273
0.133079
0.133421
0.133753
0.134077
0.134391
0.134694
0.134987
0.135267
0.135536
0.135791
0.136033
0.13626
0.136472
0.136669
0.13685
0.137015
0.137163
0.137295
0.137409
0.137506
0.137587
0.13765
0.137696
0.137726
0.13774
0.137739
0.137722
0.13769
0.137644
0.137585
0.137512
0.137427
0.137331
0.137223
0.137105
0.136976
0.136838
0.136691
0.136535
0.13637
0.136198
0.136018
0.13583
0.135635
0.135433
0.135225
0.13501
0.134788
0.134561
0.134327
0.134088
0.133843
0.133593
0.133338
0.133079
0.132816
0.132549
0.132279
0.132005
0.13173
0.131452
0.131172
0.130892
0.13061
0.130327
0.130044
0.12976
0.129476
0.129192
0.128908
0.128624
0.128339
0.128054
0.127769
0.127483
0.127196
0.126909
0.12662
0.12633
0.126038
0.125744
0.125448
0.12515
0.12485
0.124547
0.124241
0.123933
0.123621
0.123306
0.122988
0.122666
0.122341
0.122012
0.121679
0.121342
0.121
0.120655
0.120306
0.119952
0.119594
0.119232
0.118866
0.118496
0.118123
0.117746
0.117366
0.116983
0.116598
0.116211
0.115822
0.115433
0.115043
0.114653
0.114265
0.113878
0.113493
0.113112
0.112734
0.11236
0.111992
0.11163
0.111274
0.110926
0.110586
0.110254
0.109931
0.109618
0.109314
0.109022
0.10874
0.108469
0.10821
0.107963
0.107727
0.107503
0.107292
0.107092
0.106904
0.106728
0.106564
0.106411
0.106269
0.106138
0.106017
0.105906
0.105804
0.105712
0.105627
0.105551
0.105482
0.105419
0.105362
0.10531
0.105263
0.105219
0.105178
0.105139
0.105102
0.105066
0.10503
0.104993
0.104956
0.104916
0.104874
0.104829
0.104781
0.104729
0.104674
0.104614
0.104549
0.10448
0.104407
0.104329
0.104247
0.10416
0.10407
0.103976
0.103878
0.103778
0.103676
0.103571
0.103465
0.103358
0.103251
0.103143
0.103036
0.10293
0.102826
0.102723
0.102622
0.102524
0.102429
0.102336
0.102247
0.102162
0.10208
0.102001
0.101927
0.101856
0.101789
0.101727
0.101667
0.101612
0.101561
0.101513
0.101468
0.101427
0.101389
0.101355
0.101323
0.101294
0.101268
0.101244
0.101222
0.101203
0.101186
0.10117
0.101156
0.101144
0.101132
0.101122
0.101113
0.101105
0.101098
0.101092
0.101086
0.101081
0.101076
0.101072
0.101068
0.101065
0.101063
0.10106
0.101058
0.101057
0.101056
0.101056
0.101056
0.101057
0.101059
0.101061
0.101064
0.101068
0.101073
0.10108
0.101087
0.101095
0.101105
0.101116
0.101129
0.101143
0.101159
0.101176
0.101195
0.101216
0.101239
0.101264
0.10129
0.101319
0.10135
0.101382
0.101417
0.101453
0.101492
0.101532
0.101574
0.101618
0.101663
0.10171
0.101758
0.101807
0.101858
0.101909
0.10196
0.102013
0.102065
0.102117
0.10217
0.102222
0.102273
0.102324
0.102374
0.102423
0.102471
0.102471
0.1
0.100153
0.100349
0.100601
0.100896
0.101216
0.10154
0.101848
0.102124
0.102359
0.102548
0.102692
0.102798
0.102873
0.102926
0.102967
0.103005
0.103045
0.103095
0.103157
0.103235
0.103331
0.103445
0.103578
0.103729
0.103898
0.104083
0.104282
0.104494
0.104714
0.104942
0.105174
0.105408
0.10564
0.105868
0.10609
0.106305
0.106512
0.106709
0.106898
0.107079
0.107254
0.107424
0.107593
0.107762
0.107935
0.108114
0.1083
0.108497
0.108705
0.108926
0.109159
0.109406
0.109664
0.109934
0.110213
0.110502
0.110797
0.111098
0.111403
0.11171
0.112019
0.112328
0.112636
0.112944
0.113251
0.113557
0.113863
0.11417
0.114478
0.114788
0.115102
0.115421
0.115745
0.116077
0.116416
0.116765
0.117123
0.117491
0.11787
0.118259
0.118659
0.119068
0.119488
0.119916
0.120352
0.120795
0.121245
0.121699
0.122158
0.122619
0.123083
0.123547
0.124011
0.124473
0.124934
0.125392
0.125847
0.126298
0.126745
0.127187
0.127624
0.128055
0.128482
0.128902
0.129317
0.129726
0.130129
0.130526
0.130917
0.131302
0.13168
0.132052
0.132416
0.132773
0.133123
0.133464
0.133796
0.13412
0.134433
0.134736
0.135028
0.135309
0.135577
0.135831
0.136073
0.136299
0.136511
0.136708
0.136888
0.137053
0.1372
0.137331
0.137445
0.137542
0.137622
0.137685
0.137731
0.13776
0.137774
0.137772
0.137755
0.137723
0.137677
0.137617
0.137544
0.137459
0.137363
0.137255
0.137136
0.137007
0.136869
0.136721
0.136565
0.1364
0.136227
0.136047
0.135859
0.135663
0.135461
0.135252
0.135037
0.134815
0.134587
0.134352
0.134113
0.133867
0.133617
0.133362
0.133102
0.132838
0.132571
0.1323
0.132026
0.13175
0.131471
0.131191
0.13091
0.130627
0.130344
0.13006
0.129775
0.129491
0.129206
0.128921
0.128636
0.128351
0.128065
0.127779
0.127493
0.127205
0.126917
0.126627
0.126336
0.126044
0.125749
0.125453
0.125155
0.124854
0.12455
0.124244
0.123935
0.123623
0.123307
0.122988
0.122666
0.12234
0.12201
0.121677
0.121339
0.120998
0.120652
0.120302
0.119948
0.11959
0.119227
0.118861
0.118491
0.118117
0.11774
0.11736
0.116976
0.116591
0.116204
0.115815
0.115425
0.115035
0.114646
0.114257
0.11387
0.113485
0.113104
0.112726
0.112353
0.111984
0.111622
0.111267
0.110918
0.110578
0.110246
0.109923
0.10961
0.109307
0.109014
0.108733
0.108462
0.108203
0.107956
0.10772
0.107496
0.107285
0.107085
0.106897
0.106721
0.106557
0.106404
0.106262
0.106131
0.10601
0.105899
0.105797
0.105705
0.10562
0.105544
0.105475
0.105412
0.105355
0.105303
0.105255
0.105211
0.105171
0.105132
0.105095
0.105059
0.105023
0.104986
0.104948
0.104909
0.104867
0.104822
0.104774
0.104723
0.104667
0.104607
0.104543
0.104475
0.104401
0.104324
0.104242
0.104155
0.104065
0.103971
0.103874
0.103774
0.103672
0.103568
0.103462
0.103355
0.103248
0.103141
0.103034
0.102928
0.102824
0.102721
0.102621
0.102523
0.102427
0.102335
0.102246
0.102161
0.102079
0.102001
0.101926
0.101856
0.101789
0.101726
0.101667
0.101612
0.101561
0.101513
0.101469
0.101428
0.10139
0.101356
0.101324
0.101295
0.101269
0.101246
0.101225
0.101205
0.101188
0.101173
0.101159
0.101147
0.101136
0.101126
0.101117
0.10111
0.101103
0.101096
0.101091
0.101086
0.101081
0.101077
0.101074
0.101071
0.101068
0.101066
0.101064
0.101063
0.101062
0.101061
0.101062
0.101062
0.101064
0.101066
0.101069
0.101073
0.101078
0.101084
0.101091
0.1011
0.101109
0.10112
0.101133
0.101147
0.101162
0.10118
0.101199
0.10122
0.101242
0.101267
0.101293
0.101322
0.101352
0.101385
0.101419
0.101456
0.101494
0.101534
0.101576
0.101619
0.101664
0.101711
0.101759
0.101808
0.101858
0.101909
0.10196
0.102012
0.102064
0.102116
0.102168
0.102219
0.102271
0.102321
0.102371
0.102419
0.102466
0.102466
0.1
0.100156
0.100355
0.100609
0.100905
0.101225
0.101547
0.101854
0.102129
0.102362
0.102551
0.102695
0.102802
0.102878
0.102933
0.102975
0.103014
0.103056
0.103106
0.103169
0.103248
0.103343
0.103457
0.10359
0.103741
0.103909
0.104093
0.104292
0.104502
0.104721
0.104948
0.105178
0.10541
0.10564
0.105866
0.106087
0.1063
0.106504
0.1067
0.106887
0.107066
0.107239
0.107408
0.107575
0.107742
0.107914
0.108091
0.108276
0.108472
0.108679
0.108899
0.109131
0.109377
0.109634
0.109903
0.110182
0.11047
0.110766
0.111066
0.111371
0.111678
0.111987
0.112297
0.112606
0.112915
0.113223
0.113531
0.113838
0.114147
0.114457
0.114769
0.115086
0.115407
0.115734
0.116069
0.116411
0.116763
0.117124
0.117495
0.117877
0.118269
0.118672
0.119085
0.119507
0.119937
0.120376
0.120822
0.121274
0.121731
0.122192
0.122655
0.12312
0.123586
0.124052
0.124516
0.124979
0.125438
0.125895
0.126347
0.126795
0.127238
0.127676
0.128109
0.128536
0.128958
0.129374
0.129784
0.130188
0.130585
0.130977
0.131362
0.131741
0.132112
0.132477
0.132834
0.133183
0.133524
0.133857
0.13418
0.134493
0.134795
0.135087
0.135366
0.135634
0.135888
0.136128
0.136354
0.136566
0.136761
0.136941
0.137105
0.137252
0.137382
0.137495
0.137592
0.137671
0.137733
0.137779
0.137808
0.137821
0.137819
0.137801
0.137769
0.137723
0.137663
0.13759
0.137504
0.137407
0.137299
0.13718
0.13705
0.136912
0.136764
0.136607
0.136441
0.136268
0.136087
0.135899
0.135703
0.1355
0.13529
0.135074
0.134852
0.134623
0.134388
0.134148
0.133902
0.13365
0.133394
0.133134
0.132869
0.132601
0.132329
0.132055
0.131778
0.131498
0.131217
0.130935
0.130651
0.130367
0.130082
0.129797
0.129512
0.129226
0.12894
0.128654
0.128368
0.128081
0.127794
0.127507
0.127218
0.126929
0.126638
0.126346
0.126053
0.125757
0.12546
0.125161
0.124859
0.124554
0.124247
0.123937
0.123624
0.123308
0.122989
0.122666
0.122339
0.122009
0.121674
0.121336
0.120994
0.120647
0.120297
0.119942
0.119584
0.119221
0.118854
0.118483
0.118109
0.117731
0.117351
0.116967
0.116582
0.116194
0.115805
0.115415
0.115025
0.114635
0.114246
0.113859
0.113474
0.113093
0.112715
0.112342
0.111973
0.111611
0.111256
0.110907
0.110567
0.110235
0.109913
0.109599
0.109296
0.109004
0.108722
0.108452
0.108193
0.107945
0.10771
0.107487
0.107275
0.107075
0.106888
0.106712
0.106547
0.106394
0.106252
0.106121
0.106
0.105889
0.105787
0.105695
0.10561
0.105534
0.105464
0.105402
0.105344
0.105292
0.105245
0.105201
0.10516
0.105122
0.105085
0.105048
0.105012
0.104976
0.104938
0.104899
0.104857
0.104813
0.104765
0.104713
0.104658
0.104599
0.104535
0.104466
0.104394
0.104316
0.104235
0.104149
0.104059
0.103965
0.103869
0.103769
0.103667
0.103563
0.103458
0.103351
0.103244
0.103137
0.103031
0.102925
0.102821
0.102719
0.102618
0.102521
0.102425
0.102333
0.102245
0.102159
0.102078
0.101999
0.101925
0.101855
0.101788
0.101726
0.101667
0.101612
0.101561
0.101513
0.101469
0.101428
0.101391
0.101357
0.101326
0.101297
0.101272
0.101248
0.101228
0.101209
0.101192
0.101177
0.101164
0.101152
0.101141
0.101131
0.101123
0.101115
0.101109
0.101103
0.101097
0.101093
0.101088
0.101084
0.101081
0.101078
0.101075
0.101073
0.101071
0.10107
0.101069
0.101069
0.101069
0.10107
0.101071
0.101073
0.101076
0.10108
0.101085
0.101091
0.101098
0.101106
0.101115
0.101126
0.101138
0.101152
0.101168
0.101185
0.101204
0.101224
0.101247
0.101271
0.101298
0.101326
0.101356
0.101388
0.101423
0.101459
0.101497
0.101537
0.101578
0.101621
0.101666
0.101712
0.10176
0.101809
0.101858
0.101908
0.101959
0.102011
0.102062
0.102114
0.102165
0.102216
0.102267
0.102316
0.102365
0.102413
0.102459
0.102459
0.1
0.10016
0.100363
0.100619
0.100916
0.101235
0.101556
0.101861
0.102134
0.102366
0.102554
0.102699
0.102806
0.102884
0.102941
0.102986
0.103026
0.103069
0.103121
0.103185
0.103263
0.103359
0.103473
0.103605
0.103756
0.103923
0.104106
0.104303
0.104512
0.10473
0.104955
0.105183
0.105413
0.105641
0.105864
0.106082
0.106293
0.106495
0.106688
0.106872
0.107049
0.107219
0.107386
0.107551
0.107717
0.107886
0.108062
0.108246
0.10844
0.108645
0.108864
0.109095
0.109339
0.109596
0.109864
0.110143
0.11043
0.110725
0.111025
0.11133
0.111638
0.111947
0.112257
0.112567
0.112877
0.113187
0.113496
0.113806
0.114117
0.11443
0.114745
0.115064
0.115389
0.11572
0.116058
0.116404
0.11676
0.117125
0.1175
0.117886
0.118282
0.118689
0.119105
0.119531
0.119965
0.120407
0.120856
0.121311
0.121771
0.122235
0.122701
0.123169
0.123637
0.124105
0.124571
0.125036
0.125498
0.125956
0.12641
0.12686
0.127305
0.127744
0.128178
0.128607
0.12903
0.129447
0.129858
0.130263
0.130661
0.131054
0.131439
0.131818
0.13219
0.132555
0.132912
0.133261
0.133602
0.133934
0.134257
0.134569
0.134871
0.135162
0.135441
0.135707
0.13596
0.1362
0.136425
0.136635
0.13683
0.137009
0.137172
0.137318
0.137448
0.13756
0.137655
0.137734
0.137796
0.137841
0.13787
0.137882
0.137879
0.137861
0.137828
0.137781
0.137721
0.137648
0.137562
0.137464
0.137355
0.137236
0.137106
0.136967
0.136818
0.136661
0.136495
0.136321
0.136139
0.13595
0.135754
0.13555
0.13534
0.135123
0.134899
0.13467
0.134434
0.134192
0.133946
0.133693
0.133436
0.133175
0.132909
0.13264
0.132367
0.132092
0.131814
0.131533
0.131251
0.130967
0.130683
0.130397
0.130111
0.129825
0.129538
0.129251
0.128964
0.128677
0.128389
0.128101
0.127813
0.127524
0.127234
0.126944
0.126652
0.126359
0.126064
0.125767
0.125469
0.125168
0.124865
0.12456
0.124252
0.123941
0.123627
0.123309
0.122989
0.122665
0.122337
0.122006
0.121671
0.121332
0.120989
0.120642
0.12029
0.119935
0.119576
0.119212
0.118845
0.118473
0.118099
0.11772
0.117339
0.116955
0.116569
0.116181
0.115792
0.115402
0.115011
0.114621
0.114232
0.113845
0.11346
0.113079
0.112701
0.112327
0.111959
0.111597
0.111241
0.110893
0.110553
0.110221
0.109899
0.109586
0.109283
0.10899
0.108709
0.108439
0.10818
0.107933
0.107697
0.107474
0.107262
0.107063
0.106875
0.106699
0.106535
0.106382
0.10624
0.106109
0.105988
0.105877
0.105775
0.105682
0.105598
0.105521
0.105452
0.105389
0.105331
0.105279
0.105232
0.105188
0.105147
0.105108
0.105071
0.105035
0.104999
0.104963
0.104925
0.104886
0.104844
0.1048
0.104753
0.104702
0.104647
0.104587
0.104524
0.104456
0.104384
0.104307
0.104225
0.10414
0.104051
0.103958
0.103861
0.103762
0.103661
0.103557
0.103452
0.103346
0.10324
0.103133
0.103027
0.102922
0.102818
0.102716
0.102616
0.102518
0.102423
0.102331
0.102243
0.102158
0.102076
0.101998
0.101924
0.101854
0.101787
0.101725
0.101667
0.101612
0.101561
0.101513
0.10147
0.101429
0.101392
0.101359
0.101328
0.1013
0.101275
0.101252
0.101231
0.101213
0.101197
0.101182
0.101169
0.101157
0.101147
0.101138
0.10113
0.101123
0.101117
0.101111
0.101106
0.101101
0.101097
0.101094
0.10109
0.101087
0.101085
0.101083
0.101081
0.10108
0.101079
0.101078
0.101078
0.101079
0.10108
0.101082
0.101085
0.101089
0.101093
0.101099
0.101106
0.101113
0.101123
0.101133
0.101145
0.101159
0.101174
0.101191
0.10121
0.10123
0.101253
0.101277
0.101303
0.101331
0.101361
0.101393
0.101427
0.101463
0.101501
0.10154
0.101581
0.101624
0.101668
0.101714
0.101761
0.101809
0.101858
0.101908
0.101958
0.102009
0.10206
0.102111
0.102161
0.102212
0.102261
0.10231
0.102359
0.102406
0.102451
0.102451
0.1
0.100165
0.100372
0.10063
0.100929
0.101248
0.101567
0.101869
0.10214
0.10237
0.102557
0.102703
0.102812
0.102892
0.102951
0.102998
0.103041
0.103086
0.103139
0.103203
0.103282
0.103378
0.103492
0.103624
0.103773
0.10394
0.104121
0.104317
0.104524
0.10474
0.104963
0.105189
0.105416
0.105641
0.105862
0.106077
0.106284
0.106483
0.106673
0.106854
0.107028
0.107196
0.10736
0.107522
0.107686
0.107853
0.108026
0.108208
0.1084
0.108604
0.108821
0.109051
0.109294
0.109549
0.109816
0.110094
0.110381
0.110675
0.110975
0.11128
0.111588
0.111898
0.112209
0.11252
0.112832
0.113143
0.113455
0.113767
0.114081
0.114396
0.114715
0.115038
0.115367
0.115702
0.116045
0.116396
0.116756
0.117126
0.117506
0.117897
0.118298
0.118709
0.11913
0.11956
0.119999
0.120445
0.120898
0.121357
0.12182
0.122287
0.122757
0.123227
0.123699
0.124169
0.124639
0.125106
0.12557
0.12603
0.126487
0.126939
0.127385
0.127827
0.128263
0.128693
0.129118
0.129536
0.129949
0.130354
0.130754
0.131147
0.131533
0.131913
0.132285
0.13265
0.133007
0.133356
0.133697
0.134029
0.134351
0.134662
0.134964
0.135254
0.135532
0.135797
0.136049
0.136288
0.136512
0.136721
0.136914
0.137092
0.137254
0.137399
0.137527
0.137639
0.137734
0.137811
0.137872
0.137917
0.137945
0.137957
0.137953
0.137934
0.137901
0.137853
0.137792
0.137719
0.137632
0.137534
0.137425
0.137305
0.137174
0.137034
0.136885
0.136727
0.13656
0.136386
0.136203
0.136013
0.135816
0.135611
0.1354
0.135182
0.134957
0.134727
0.13449
0.134247
0.133999
0.133746
0.133488
0.133225
0.132958
0.132688
0.132414
0.132137
0.131857
0.131576
0.131292
0.131007
0.130721
0.130434
0.130147
0.129859
0.129571
0.129282
0.128994
0.128705
0.128416
0.128126
0.127836
0.127546
0.127254
0.126962
0.126669
0.126374
0.126078
0.12578
0.12548
0.125178
0.124873
0.124566
0.124257
0.123945
0.123629
0.123311
0.122989
0.122664
0.122335
0.122003
0.121667
0.121327
0.120983
0.120635
0.120282
0.119926
0.119566
0.119201
0.118833
0.118461
0.118086
0.117707
0.117325
0.116941
0.116554
0.116166
0.115776
0.115385
0.114995
0.114605
0.114215
0.113828
0.113443
0.113061
0.112683
0.11231
0.111942
0.11158
0.111224
0.110876
0.110536
0.110204
0.109882
0.109569
0.109266
0.108974
0.108693
0.108422
0.108164
0.107917
0.107681
0.107458
0.107247
0.107047
0.10686
0.106684
0.10652
0.106367
0.106225
0.106093
0.105972
0.105861
0.105759
0.105667
0.105582
0.105505
0.105436
0.105373
0.105315
0.105263
0.105216
0.105172
0.105131
0.105092
0.105055
0.105019
0.104983
0.104947
0.104909
0.10487
0.104829
0.104785
0.104738
0.104687
0.104632
0.104574
0.104511
0.104443
0.104371
0.104295
0.104214
0.104129
0.104041
0.103948
0.103853
0.103754
0.103653
0.10355
0.103446
0.10334
0.103234
0.103128
0.103022
0.102917
0.102814
0.102712
0.102612
0.102515
0.10242
0.102329
0.10224
0.102155
0.102074
0.101996
0.101922
0.101853
0.101786
0.101724
0.101666
0.101612
0.101561
0.101514
0.10147
0.101431
0.101394
0.101361
0.10133
0.101303
0.101278
0.101256
0.101236
0.101218
0.101202
0.101188
0.101176
0.101165
0.101155
0.101146
0.101139
0.101132
0.101126
0.101121
0.101116
0.101112
0.101108
0.101104
0.101101
0.101099
0.101096
0.101094
0.101093
0.101091
0.10109
0.10109
0.10109
0.10109
0.101091
0.101093
0.101096
0.101099
0.101103
0.101109
0.101115
0.101123
0.101132
0.101142
0.101154
0.101167
0.101182
0.101199
0.101217
0.101237
0.101259
0.101283
0.101309
0.101337
0.101367
0.101398
0.101432
0.101467
0.101505
0.101544
0.101585
0.101627
0.101671
0.101716
0.101763
0.10181
0.101859
0.101908
0.101957
0.102007
0.102057
0.102107
0.102157
0.102206
0.102255
0.102303
0.10235
0.102396
0.10244
0.10244
0.1
0.100171
0.100382
0.100644
0.100944
0.101262
0.10158
0.101879
0.102147
0.102375
0.102562
0.102708
0.102818
0.1029
0.102962
0.103012
0.103058
0.103105
0.103159
0.103225
0.103305
0.103401
0.103514
0.103645
0.103794
0.103959
0.104139
0.104333
0.104538
0.104752
0.104972
0.105195
0.105419
0.105641
0.105859
0.10607
0.106274
0.106469
0.106655
0.106833
0.107003
0.107168
0.107329
0.107488
0.107649
0.107813
0.107984
0.108163
0.108353
0.108555
0.10877
0.108998
0.10924
0.109494
0.10976
0.110037
0.110323
0.110616
0.110916
0.111221
0.111529
0.11184
0.112152
0.112464
0.112778
0.113091
0.113405
0.11372
0.114037
0.114357
0.11468
0.115008
0.115341
0.115681
0.116029
0.116385
0.116751
0.117127
0.117513
0.117909
0.118315
0.118732
0.119159
0.119594
0.120038
0.120489
0.120947
0.12141
0.121878
0.122349
0.122822
0.123297
0.123771
0.124245
0.124718
0.125188
0.125655
0.126118
0.126577
0.127032
0.127481
0.127925
0.128363
0.128795
0.129222
0.129642
0.130056
0.130463
0.130864
0.131258
0.131645
0.132025
0.132398
0.132763
0.13312
0.133469
0.133809
0.13414
0.134462
0.134773
0.135073
0.135362
0.135639
0.135903
0.136154
0.136391
0.136614
0.136821
0.137014
0.13719
0.137351
0.137495
0.137622
0.137732
0.137826
0.137902
0.137962
0.138006
0.138033
0.138044
0.13804
0.138021
0.137987
0.137939
0.137877
0.137802
0.137715
0.137617
0.137507
0.137386
0.137255
0.137114
0.136964
0.136805
0.136638
0.136462
0.136279
0.136087
0.135889
0.135683
0.135471
0.135252
0.135026
0.134794
0.134556
0.134312
0.134063
0.133808
0.133549
0.133285
0.133016
0.132744
0.132469
0.132191
0.131909
0.131626
0.131341
0.131055
0.130767
0.130478
0.130189
0.129899
0.129609
0.129319
0.129029
0.128738
0.128447
0.128156
0.127864
0.127571
0.127278
0.126984
0.126689
0.126392
0.126094
0.125795
0.125493
0.125189
0.124883
0.124574
0.124263
0.123949
0.123633
0.123313
0.12299
0.122663
0.122333
0.121999
0.121662
0.121321
0.120975
0.120626
0.120273
0.119915
0.119554
0.119189
0.11882
0.118447
0.11807
0.117691
0.117308
0.116923
0.116536
0.116147
0.115757
0.115366
0.114975
0.114584
0.114195
0.113807
0.113422
0.11304
0.112662
0.112289
0.111921
0.111559
0.111204
0.110856
0.110516
0.110184
0.109862
0.109549
0.109247
0.108955
0.108673
0.108403
0.108145
0.107898
0.107663
0.10744
0.107228
0.107029
0.106842
0.106666
0.106502
0.106349
0.106207
0.106075
0.105954
0.105843
0.105741
0.105648
0.105564
0.105487
0.105417
0.105354
0.105297
0.105244
0.105197
0.105153
0.105112
0.105073
0.105036
0.105
0.104964
0.104928
0.104891
0.104852
0.104811
0.104767
0.10472
0.10467
0.104616
0.104558
0.104495
0.104428
0.104357
0.104281
0.104201
0.104117
0.104029
0.103937
0.103842
0.103744
0.103644
0.103542
0.103438
0.103333
0.103227
0.103122
0.103016
0.102912
0.102809
0.102708
0.102608
0.102511
0.102417
0.102326
0.102237
0.102153
0.102072
0.101994
0.101921
0.101851
0.101785
0.101723
0.101665
0.101611
0.101561
0.101514
0.101471
0.101432
0.101396
0.101363
0.101333
0.101306
0.101282
0.10126
0.101241
0.101224
0.101208
0.101195
0.101183
0.101173
0.101164
0.101155
0.101148
0.101142
0.101137
0.101132
0.101127
0.101124
0.10112
0.101117
0.101114
0.101112
0.101109
0.101107
0.101106
0.101104
0.101103
0.101103
0.101103
0.101103
0.101104
0.101105
0.101108
0.101111
0.101115
0.10112
0.101126
0.101133
0.101142
0.101152
0.101163
0.101176
0.101191
0.101207
0.101225
0.101245
0.101267
0.101291
0.101316
0.101344
0.101373
0.101404
0.101438
0.101473
0.101509
0.101548
0.101588
0.10163
0.101674
0.101718
0.101764
0.101811
0.101858
0.101907
0.101955
0.102004
0.102054
0.102103
0.102151
0.1022
0.102247
0.102294
0.10234
0.102385
0.102428
0.102428
0.1
0.100178
0.100394
0.10066
0.100961
0.101279
0.101594
0.10189
0.102155
0.102381
0.102566
0.102713
0.102825
0.10291
0.102975
0.103028
0.103077
0.103126
0.103183
0.103249
0.10333
0.103426
0.103539
0.10367
0.103817
0.103981
0.10416
0.104352
0.104554
0.104766
0.104983
0.105203
0.105423
0.105641
0.105855
0.106062
0.106261
0.106452
0.106634
0.106808
0.106974
0.107135
0.107293
0.107449
0.107606
0.107768
0.107936
0.108112
0.1083
0.108499
0.108712
0.108938
0.109178
0.109431
0.109695
0.109971
0.110256
0.110549
0.110849
0.111153
0.111462
0.111773
0.112086
0.1124
0.112715
0.113031
0.113348
0.113667
0.113988
0.114311
0.114639
0.114972
0.115311
0.115657
0.11601
0.116373
0.116745
0.117127
0.11752
0.117923
0.118336
0.118759
0.119191
0.119633
0.120083
0.120539
0.121003
0.121471
0.121944
0.12242
0.122897
0.123376
0.123855
0.124333
0.124809
0.125283
0.125753
0.12622
0.126682
0.127139
0.127591
0.128038
0.128478
0.128913
0.129341
0.129763
0.130179
0.130588
0.13099
0.131385
0.131773
0.132154
0.132527
0.132893
0.13325
0.133599
0.133939
0.134269
0.13459
0.1349
0.135199
0.135487
0.135762
0.136025
0.136275
0.13651
0.136731
0.136938
0.137129
0.137304
0.137462
0.137605
0.137731
0.13784
0.137932
0.138008
0.138067
0.138109
0.138135
0.138146
0.13814
0.13812
0.138085
0.138037
0.137974
0.137899
0.137811
0.137712
0.137601
0.137479
0.137348
0.137206
0.137055
0.136895