# vtk DataFile Version 3.0
LBM Fluid Grid
ASCII
DATASET STRUCTURED_POINTS
DIMENSIONS 400 150 1
ORIGIN 0 0 0
SPACING 1 1 1
POINT_DATA 60000
SCALARS VelocityMagnitude double 1
LOOKUP_TABLE default
0.1
0.100002
0.100007
0.100017
0.100029
0.100046
0.100066
0.10009
0.100118
0.10015
0.100185
0.100225
0.100268
0.100315
0.100366
0.100422
0.100481
0.100545
0.100613
0.100685
0.100761
0.100842
0.100928
0.101019
0.101114
0.101214
0.10132
0.10143
0.101546
0.101668
0.101795
0.101927
0.102066
0.10221
0.102361
0.102518
0.102682
0.102852
0.103028
0.103212
0.103403
0.1036
0.103805
0.104018
0.104238
0.104465
0.104701
0.104944
0.105196
0.105455
0.105723
0.106
0.106285
0.106578
0.106881
0.107192
0.107511
0.10784
0.108177
0.108524
0.108879
0.109243
0.109616
0.109998
0.110389
0.110788
0.111195
0.111611
0.112035
0.112466
0.112906
0.113353
0.113807
0.114268
0.114735
0.115209
0.115689
0.116174
0.116665
0.11716
0.117659
0.118162
0.118668
0.119177
0.119688
0.120201
0.120715
0.121229
0.121744
0.122258
0.12277
0.123282
0.123791
0.124297
0.124799
0.125298
0.125793
0.126282
0.126766
0.127243
0.127715
0.128179
0.128636
0.129085
0.129526
0.129958
0.130381
0.130795
0.1312
0.131594
0.131979
0.132353
0.132717
0.13307
0.133413
0.133745
0.134065
0.134375
0.134674
0.134962
0.135239
0.135504
0.135759
0.136003
0.136236
0.136458
0.13667
0.136871
0.137062
0.137243
0.137413
0.137573
0.137724
0.137865
0.137997
0.13812
0.138233
0.138338
0.138434
0.138521
0.138601
0.138672
0.138735
0.138791
0.13884
0.138881
0.138915
0.138942
0.138963
0.138977
0.138986
0.138988
0.138984
0.138975
0.13896
0.13894
0.138915
0.138886
0.138851
0.138812
0.138769
0.138722
0.13867
0.138615
0.138557
0.138494
0.138429
0.13836
0.138288
0.138214
0.138136
0.138056
0.137974
0.137889
0.137802
0.137713
0.137621
0.137528
0.137434
0.137337
0.13724
0.13714
0.13704
0.136938
0.136835
0.136731
0.136626
0.13652
0.136414
0.136306
0.136199
0.13609
0.135981
0.135872
0.135762
0.135653
0.135543
0.135432
0.135322
0.135212
0.135101
0.134991
0.134881
0.134771
0.134661
0.134552
0.134443
0.134334
0.134225
0.134117
0.134009
0.133902
0.133795
0.133689
0.133584
0.133478
0.133374
0.13327
0.133167
0.133064
0.132962
0.132861
0.13276
0.13266
0.132561
0.132463
0.132365
0.132268
0.132172
0.132077
0.131982
0.131888
0.131795
0.131703
0.131612
0.131521
0.131432
0.131343
0.131255
0.131168
0.131081
0.130996
0.130911
0.130827
0.130744
0.130662
0.13058
0.1305
0.13042
0.130341
0.130263
0.130186
0.130109
0.130033
0.129958
0.129884
0.129811
0.129738
0.129667
0.129596
0.129525
0.129456
0.129387
0.129319
0.129252
0.129185
0.129119
0.129054
0.12899
0.128926
0.128863
0.128801
0.128739
0.128679
0.128618
0.128559
0.1285
0.128442
0.128384
0.128327
0.128271
0.128215
0.12816
0.128106
0.128052
0.127999
0.127946
0.127894
0.127842
0.127792
0.127741
0.127691
0.127642
0.127594
0.127545
0.127498
0.127451
0.127404
0.127358
0.127313
0.127268
0.127223
0.127179
0.127136
0.127093
0.127051
0.127009
0.126967
0.126926
0.126885
0.126845
0.126806
0.126767
0.126728
0.12669
0.126652
0.126614
0.126578
0.126541
0.126505
0.126469
0.126434
0.1264
0.126365
0.126332
0.126298
0.126265
0.126233
0.1262
0.126169
0.126138
0.126107
0.126076
0.126046
0.126017
0.125988
0.125959
0.125931
0.125903
0.125876
0.125849
0.125822
0.125796
0.125771
0.125746
0.125721
0.125697
0.125673
0.12565
0.125627
0.125605
0.125583
0.125562
0.125541
0.125521
0.125501
0.125482
0.125463
0.125445
0.125427
0.12541
0.125393
0.125377
0.125362
0.125347
0.125332
0.125318
0.125305
0.125292
0.12528
0.125268
0.125257
0.125247
0.125237
0.125228
0.125219
0.125211
0.125204
0.125197
0.12519
0.125185
0.125179
0.125175
0.12517
0.125167
0.125164
0.125161
0.125158
0.125156
0.125155
0.125154
0.125153
0.125152
0.125152
0.125151
0.125151
0.125151
0.12515
0.12515
0.12515
0.1
0.100002
0.100007
0.100017
0.100029
0.100046
0.100066
0.100091
0.100118
0.10015
0.100186
0.100225
0.100268
0.100315
0.100367
0.100422
0.100481
0.100545
0.100613
0.100685
0.100762
0.100843
0.100929
0.101019
0.101115
0.101215
0.10132
0.101431
0.101547
0.101668
0.101795
0.101928
0.102067
0.102211
0.102362
0.102519
0.102683
0.102853
0.10303
0.103213
0.103404
0.103602
0.103807
0.104019
0.104239
0.104467
0.104703
0.104946
0.105198
0.105457
0.105725
0.106002
0.106287
0.10658
0.106883
0.107194
0.107513
0.107842
0.108179
0.108526
0.108881
0.109245
0.109618
0.11
0.11039
0.110789
0.111196
0.111612
0.112036
0.112467
0.112907
0.113353
0.113807
0.114268
0.114736
0.115209
0.115689
0.116174
0.116664
0.117159
0.117658
0.11816
0.118666
0.119175
0.119686
0.120198
0.120712
0.121226
0.12174
0.122254
0.122767
0.123278
0.123786
0.124292
0.124795
0.125293
0.125787
0.126276
0.12676
0.127237
0.127709
0.128173
0.128629
0.129078
0.129519
0.129951
0.130374
0.130788
0.131192
0.131587
0.131971
0.132346
0.13271
0.133063
0.133405
0.133737
0.134058
0.134368
0.134667
0.134954
0.135231
0.135497
0.135752
0.135996
0.136229
0.136451
0.136663
0.136864
0.137055
0.137236
0.137406
0.137567
0.137718
0.137859
0.137991
0.138113
0.138227
0.138332
0.138428
0.138515
0.138595
0.138666
0.13873
0.138786
0.138834
0.138875
0.13891
0.138937
0.138958
0.138972
0.138981
0.138983
0.138979
0.13897
0.138956
0.138936
0.138911
0.138882
0.138847
0.138808
0.138765
0.138718
0.138667
0.138612
0.138553
0.138491
0.138425
0.138357
0.138285
0.13821
0.138133
0.138053
0.137971
0.137886
0.137799
0.13771
0.137619
0.137526
0.137431
0.137335
0.137237
0.137138
0.137037
0.136935
0.136833
0.136729
0.136624
0.136518
0.136412
0.136304
0.136197
0.136088
0.135979
0.13587
0.135761
0.135651
0.135541
0.135431
0.13532
0.13521
0.1351
0.13499
0.134879
0.13477
0.13466
0.13455
0.134441
0.134332
0.134224
0.134116
0.134008
0.133901
0.133794
0.133688
0.133582
0.133477
0.133372
0.133269
0.133165
0.133063
0.132961
0.132859
0.132759
0.132659
0.13256
0.132461
0.132364
0.132267
0.132171
0.132075
0.131981
0.131887
0.131794
0.131702
0.131611
0.13152
0.131431
0.131342
0.131254
0.131167
0.13108
0.130995
0.13091
0.130826
0.130743
0.130661
0.13058
0.130499
0.130419
0.13034
0.130262
0.130185
0.130108
0.130033
0.129958
0.129884
0.12981
0.129738
0.129666
0.129595
0.129525
0.129455
0.129386
0.129318
0.129251
0.129185
0.129119
0.129054
0.128989
0.128926
0.128863
0.128801
0.128739
0.128678
0.128618
0.128558
0.1285
0.128441
0.128384
0.128327
0.128271
0.128215
0.12816
0.128106
0.128052
0.127998
0.127946
0.127894
0.127842
0.127792
0.127741
0.127691
0.127642
0.127594
0.127546
0.127498
0.127451
0.127404
0.127359
0.127313
0.127268
0.127224
0.12718
0.127136
0.127093
0.127051
0.127009
0.126968
0.126927
0.126886
0.126846
0.126806
0.126767
0.126729
0.12669
0.126653
0.126615
0.126578
0.126542
0.126506
0.12647
0.126435
0.126401
0.126366
0.126333
0.126299
0.126266
0.126234
0.126202
0.12617
0.126139
0.126108
0.126078
0.126048
0.126018
0.125989
0.125961
0.125932
0.125905
0.125877
0.125851
0.125824
0.125798
0.125773
0.125748
0.125723
0.125699
0.125675
0.125652
0.125629
0.125607
0.125585
0.125564
0.125543
0.125523
0.125503
0.125484
0.125465
0.125447
0.125429
0.125412
0.125396
0.12538
0.125364
0.125349
0.125335
0.125321
0.125308
0.125295
0.125283
0.125271
0.12526
0.12525
0.12524
0.125231
0.125222
0.125214
0.125207
0.1252
0.125194
0.125188
0.125183
0.125178
0.125174
0.12517
0.125167
0.125164
0.125162
0.12516
0.125159
0.125157
0.125156
0.125156
0.125155
0.125155
0.125155
0.125154
0.125154
0.125154
0.125154
0.1
0.100002
0.100007
0.100017
0.100029
0.100046
0.100066
0.10009
0.100118
0.10015
0.100185
0.100225
0.100268
0.100315
0.100366
0.100422
0.100481
0.100545
0.100613
0.100685
0.100761
0.100842
0.100928
0.101019
0.101114
0.101214
0.10132
0.10143
0.101546
0.101668
0.101795
0.101927
0.102066
0.10221
0.102361
0.102518
0.102682
0.102852
0.103028
0.103212
0.103403
0.1036
0.103805
0.104018
0.104238
0.104465
0.104701
0.104944
0.105196
0.105455
0.105723
0.106
0.106285
0.106578
0.106881
0.107192
0.107511
0.10784
0.108177
0.108524
0.108879
0.109243
0.109616
0.109998
0.110389
0.110788
0.111195
0.111611
0.112035
0.112466
0.112906
0.113353
0.113807
0.114268
0.114735
0.115209
0.115689
0.116174
0.116665
0.11716
0.117659
0.118162
0.118668
0.119177
0.119688
0.120201
0.120715
0.121229
0.121744
0.122258
0.12277
0.123282
0.123791
0.124297
0.124799
0.125298
0.125793
0.126282
0.126766
0.127243
0.127715
0.128179
0.128636
0.129085
0.129526
0.129958
0.130381
0.130795
0.1312
0.131594
0.131979
0.132353
0.132717
0.13307
0.133413
0.133745
0.134065
0.134375
0.134674
0.134962
0.135239
0.135504
0.135759
0.136003
0.136236
0.136458
0.13667
0.136871
0.137062
0.137243
0.137413
0.137573
0.137724
0.137865
0.137997
0.13812
0.138233
0.138338
0.138434
0.138521
0.138601
0.138672
0.138735
0.138791
0.13884
0.138881
0.138915
0.138942
0.138963
0.138977
0.138986
0.138988
0.138984
0.138975
0.13896
0.13894
0.138915
0.138886
0.138851
0.138812
0.138769
0.138722
0.13867
0.138615
0.138557
0.138494
0.138429
0.13836
0.138288
0.138214
0.138136
0.138056
0.137974
0.137889
0.137802
0.137713
0.137621
0.137528
0.137434
0.137337
0.13724
0.13714
0.13704
0.136938
0.136835
0.136731
0.136626
0.13652
0.136414
0.136306
0.136199
0.13609
0.135981
0.135872
0.135762
0.135653
0.135543
0.135432
0.135322
0.135212
0.135101
0.134991
0.134881
0.134771
0.134661
0.134552
0.134443
0.134334
0.134225
0.134117
0.134009
0.133902
0.133795
0.133689
0.133584
0.133478
0.133374
0.13327
0.133167
0.133064
0.132962
0.132861
0.13276
0.13266
0.132561
0.132463
0.132365
0.132268
0.132172
0.132077
0.131982
0.131888
0.131795
0.131703
0.131612
0.131521
0.131432
0.131343
0.131255
0.131168
0.131081
0.130996
0.130911
0.130827
0.130744
0.130662
0.13058
0.1305
0.13042
0.130341
0.130263
0.130186
0.130109
0.130033
0.129958
0.129884
0.129811
0.129738
0.129667
0.129595
0.129525
0.129456
0.129387
0.129319
0.129252
0.129185
0.129119
0.129054
0.12899
0.128926
0.128863
0.128801
0.128739
0.128679
0.128618
0.128559
0.1285
0.128442
0.128384
0.128327
0.128271
0.128215
0.12816
0.128106
0.128052
0.127999
0.127946
0.127894
0.127842
0.127792
0.127741
0.127691
0.127642
0.127594
0.127545
0.127498
0.127451
0.127404
0.127358
0.127313
0.127268
0.127223
0.127179
0.127136
0.127093
0.127051
0.127009
0.126967
0.126926
0.126885
0.126845
0.126806
0.126767
0.126728
0.12669
0.126652
0.126614
0.126578
0.126541
0.126505
0.12647
0.126434
0.1264
0.126365
0.126332
0.126298
0.126265
0.126233
0.1262
0.126169
0.126138
0.126107
0.126076
0.126046
0.126017
0.125988
0.125959
0.125931
0.125903
0.125876
0.125849
0.125822
0.125796
0.125771
0.125746
0.125721
0.125697
0.125673
0.12565
0.125627
0.125605
0.125583
0.125562
0.125541
0.125521
0.125501
0.125482
0.125463
0.125445
0.125427
0.12541
0.125393
0.125377
0.125362
0.125347
0.125332
0.125318
0.125305
0.125292
0.12528
0.125268
0.125257
0.125247
0.125237
0.125228
0.125219
0.125211
0.125204
0.125197
0.12519
0.125185
0.125179
0.125175
0.12517
0.125167
0.125164
0.125161
0.125158
0.125156
0.125155
0.125154
0.125153
0.125152
0.125152
0.125151
0.125151
0.125151
0.12515
0.12515
0.12515
0.1
0.100002
0.100007
0.100017
0.100029
0.100046
0.100066
0.10009
0.100118
0.10015
0.100185
0.100224
0.100268
0.100315
0.100366
0.100421
0.10048
0.100544
0.100611
0.100684
0.10076
0.100841
0.100927
0.101017
0.101112
0.101212
0.101317
0.101428
0.101544
0.101665
0.101792
0.101924
0.102063
0.102207
0.102358
0.102514
0.102678
0.102848
0.103024
0.103208
0.103398
0.103596
0.1038
0.104013
0.104232
0.10446
0.104695
0.104939
0.10519
0.10545
0.105717
0.105994
0.106279
0.106572
0.106874
0.107185
0.107505
0.107834
0.108172
0.108518
0.108874
0.109238
0.109611
0.109993
0.110384
0.110783
0.111191
0.111607
0.112031
0.112463
0.112903
0.113351
0.113805
0.114267
0.114735
0.115209
0.11569
0.116176
0.116667
0.117162
0.117662
0.118166
0.118673
0.119182
0.119694
0.120208
0.120723
0.121238
0.121753
0.122268
0.122782
0.123294
0.123804
0.12431
0.124814
0.125313
0.125808
0.126298
0.126783
0.127261
0.127733
0.128198
0.128655
0.129105
0.129546
0.129979
0.130402
0.130816
0.131221
0.131616
0.132001
0.132375
0.13274
0.133093
0.133436
0.133767
0.134088
0.134398
0.134697
0.134984
0.135261
0.135527
0.135781
0.136025
0.136258
0.13648
0.136691
0.136892
0.137083
0.137263
0.137433
0.137594
0.137744
0.137885
0.138016
0.138139
0.138252
0.138356
0.138452
0.138539
0.138618
0.138689
0.138752
0.138808
0.138856
0.138897
0.13893
0.138957
0.138978
0.138992
0.139
0.139002
0.138998
0.138988
0.138973
0.138953
0.138928
0.138898
0.138863
0.138824
0.138781
0.138733
0.138682
0.138626
0.138567
0.138505
0.138439
0.13837
0.138298
0.138223
0.138146
0.138065
0.137983
0.137898
0.13781
0.137721
0.13763
0.137537
0.137442
0.137345
0.137247
0.137148
0.137047
0.136945
0.136842
0.136738
0.136633
0.136527
0.13642
0.136313
0.136205
0.136096
0.135987
0.135878
0.135768
0.135658
0.135548
0.135438
0.135327
0.135217
0.135107
0.134996
0.134886
0.134776
0.134666
0.134557
0.134447
0.134338
0.13423
0.134122
0.134014
0.133907
0.1338
0.133693
0.133588
0.133482
0.133378
0.133274
0.133171
0.133068
0.132966
0.132864
0.132764
0.132664
0.132565
0.132466
0.132368
0.132271
0.132175
0.13208
0.131985
0.131892
0.131799
0.131706
0.131615
0.131524
0.131435
0.131346
0.131258
0.13117
0.131084
0.130998
0.130914
0.13083
0.130747
0.130664
0.130583
0.130502
0.130423
0.130344
0.130265
0.130188
0.130111
0.130036
0.129961
0.129886
0.129813
0.12974
0.129668
0.129597
0.129527
0.129458
0.129389
0.129321
0.129253
0.129187
0.129121
0.129056
0.128991
0.128928
0.128865
0.128802
0.128741
0.12868
0.128619
0.12856
0.128501
0.128443
0.128385
0.128328
0.128271
0.128216
0.128161
0.128106
0.128052
0.127999
0.127946
0.127894
0.127842
0.127791
0.127741
0.127691
0.127642
0.127593
0.127545
0.127497
0.12745
0.127404
0.127358
0.127312
0.127267
0.127222
0.127178
0.127135
0.127092
0.127049
0.127007
0.126966
0.126924
0.126884
0.126844
0.126804
0.126765
0.126726
0.126687
0.12665
0.126612
0.126575
0.126538
0.126502
0.126467
0.126431
0.126397
0.126362
0.126328
0.126295
0.126262
0.126229
0.126197
0.126165
0.126134
0.126103
0.126072
0.126042
0.126012
0.125983
0.125955
0.125926
0.125898
0.125871
0.125844
0.125817
0.125791
0.125765
0.12574
0.125715
0.125691
0.125667
0.125644
0.125621
0.125599
0.125577
0.125555
0.125534
0.125514
0.125494
0.125475
0.125456
0.125437
0.12542
0.125402
0.125385
0.125369
0.125354
0.125338
0.125324
0.12531
0.125296
0.125284
0.125271
0.12526
0.125248
0.125238
0.125228
0.125219
0.12521
0.125202
0.125194
0.125187
0.125181
0.125175
0.125169
0.125164
0.12516
0.125156
0.125153
0.12515
0.125148
0.125146
0.125144
0.125143
0.125142
0.125141
0.12514
0.12514
0.12514
0.125139
0.125139
0.125139
0.125139
0.1
0.100002
0.100007
0.100017
0.100029
0.100046
0.100066
0.10009
0.100118
0.100149
0.100185
0.100224
0.100267
0.100314
0.100365
0.10042
0.100479
0.100542
0.10061
0.100682
0.100758
0.100839
0.100924
0.101014
0.101109
0.101209
0.101314
0.101424
0.101539
0.10166
0.101787
0.101919
0.102057
0.102201
0.102352
0.102508
0.102671
0.102841
0.103017
0.1032
0.10339
0.103588
0.103792
0.104004
0.104224
0.104451
0.104686
0.104929
0.10518
0.10544
0.105708
0.105984
0.106269
0.106562
0.106864
0.107175
0.107495
0.107824
0.108162
0.108509
0.108864
0.109229
0.109602
0.109985
0.110376
0.110775
0.111184
0.1116
0.112025
0.112458
0.112899
0.113347
0.113802
0.114265
0.114734
0.115209
0.115691
0.116178
0.11667
0.117167
0.117668
0.118173
0.118681
0.119192
0.119705
0.12022
0.120736
0.121253
0.12177
0.122286
0.122801
0.123314
0.123825
0.124333
0.124838
0.125339
0.125835
0.126326
0.126812
0.127291
0.127764
0.128229
0.128688
0.129138
0.12958
0.130013
0.130437
0.130852
0.131257
0.131653
0.132038
0.132413
0.132777
0.133131
0.133473
0.133805
0.134126
0.134436
0.134734
0.135022
0.135298
0.135564
0.135818
0.136062
0.136294
0.136516
0.136727
0.136928
0.137118
0.137297
0.137467
0.137627
0.137777
0.137917
0.138048
0.13817
0.138283
0.138387
0.138482
0.138568
0.138647
0.138717
0.13878
0.138835
0.138883
0.138923
0.138956
0.138983
0.139003
0.139016
0.139024
0.139025
0.139021
0.139011
0.138995
0.138975
0.138949
0.138919
0.138884
0.138844
0.1388
0.138752
0.1387
0.138644
0.138585
0.138522
0.138456
0.138387
0.138314
0.138239
0.138161
0.138081
0.137998
0.137912
0.137825
0.137735
0.137643
0.13755
0.137455
0.137358
0.13726
0.13716
0.137059
0.136957
0.136854
0.136749
0.136644
0.136538
0.136431
0.136323
0.136215
0.136106
0.135997
0.135888
0.135778
0.135668
0.135557
0.135447
0.135336
0.135226
0.135115
0.135005
0.134894
0.134784
0.134674
0.134565
0.134455
0.134346
0.134237
0.134129
0.134021
0.133914
0.133807
0.1337
0.133595
0.133489
0.133385
0.13328
0.133177
0.133074
0.132972
0.132871
0.13277
0.13267
0.13257
0.132472
0.132374
0.132277
0.132181
0.132085
0.131991
0.131897
0.131804
0.131712
0.13162
0.131529
0.13144
0.131351
0.131263
0.131175
0.131089
0.131003
0.130918
0.130834
0.130751
0.130669
0.130587
0.130506
0.130426
0.130347
0.130269
0.130192
0.130115
0.130039
0.129964
0.12989
0.129816
0.129744
0.129672
0.1296
0.12953
0.12946
0.129391
0.129323
0.129256
0.129189
0.129123
0.129058
0.128993
0.12893
0.128867
0.128804
0.128742
0.128681
0.128621
0.128561
0.128502
0.128444
0.128386
0.128329
0.128272
0.128217
0.128161
0.128107
0.128053
0.127999
0.127946
0.127894
0.127842
0.127791
0.127741
0.127691
0.127641
0.127592
0.127544
0.127496
0.127449
0.127402
0.127356
0.12731
0.127265
0.127221
0.127176
0.127133
0.127089
0.127047
0.127005
0.126963
0.126921
0.126881
0.12684
0.1268
0.126761
0.126722
0.126684
0.126645
0.126608
0.126571
0.126534
0.126498
0.126462
0.126426
0.126391
0.126357
0.126323
0.126289
0.126256
0.126223
0.12619
0.126158
0.126127
0.126096
0.126065
0.126035
0.126005
0.125976
0.125947
0.125918
0.12589
0.125862
0.125835
0.125808
0.125782
0.125756
0.125731
0.125706
0.125681
0.125657
0.125634
0.125611
0.125588
0.125566
0.125544
0.125523
0.125502
0.125482
0.125463
0.125444
0.125425
0.125407
0.125389
0.125372
0.125356
0.12534
0.125325
0.12531
0.125296
0.125282
0.125269
0.125257
0.125245
0.125233
0.125223
0.125212
0.125203
0.125194
0.125185
0.125178
0.12517
0.125164
0.125158
0.125152
0.125147
0.125143
0.125139
0.125135
0.125132
0.12513
0.125127
0.125126
0.125124
0.125123
0.125122
0.125122
0.125121
0.125121
0.12512
0.12512
0.12512
0.12512
0.1
0.100002
0.100007
0.100016
0.100029
0.100046
0.100066
0.10009
0.100117
0.100149
0.100184
0.100223
0.100266
0.100312
0.100363
0.100418
0.100477
0.10054
0.100607
0.100679
0.100755
0.100835
0.10092
0.10101
0.101105
0.101204
0.101309
0.101419
0.101534
0.101654
0.10178
0.101912
0.10205
0.102194
0.102343
0.1025
0.102662
0.102831
0.103007
0.10319
0.10338
0.103577
0.103781
0.103992
0.104212
0.104439
0.104673
0.104916
0.105167
0.105426
0.105694
0.10597
0.106255
0.106548
0.10685
0.107161
0.107481
0.10781
0.108148
0.108495
0.108851
0.109216
0.10959
0.109973
0.110364
0.110765
0.111174
0.111591
0.112017
0.112451
0.112892
0.113342
0.113798
0.114262
0.114732
0.115209
0.115692
0.116181
0.116675
0.117173
0.117676
0.118183
0.118693
0.119205
0.119721
0.120237
0.120755
0.121274
0.121793
0.122311
0.122828
0.123343
0.123856
0.124365
0.124872
0.125374
0.125872
0.126365
0.126852
0.127333
0.127807
0.128274
0.128733
0.129185
0.129628
0.130062
0.130487
0.130902
0.131308
0.131704
0.13209
0.132465
0.13283
0.133183
0.133526
0.133858
0.134179
0.134489
0.134787
0.135075
0.135351
0.135616
0.13587
0.136113
0.136345
0.136566
0.136777
0.136977
0.137166
0.137346
0.137515
0.137674
0.137823
0.137963
0.138093
0.138214
0.138326
0.138429
0.138524
0.13861
0.138687
0.138757
0.138819
0.138873
0.13892
0.13896
0.138992
0.139018
0.139037
0.13905
0.139057
0.139058
0.139053
0.139042
0.139026
0.139005
0.138979
0.138948
0.138912
0.138872
0.138827
0.138779
0.138726
0.13867
0.13861
0.138547
0.13848
0.13841
0.138337
0.138261
0.138183
0.138102
0.138018
0.137933
0.137845
0.137755
0.137663
0.137569
0.137473
0.137376
0.137277
0.137177
0.137076
0.136973
0.13687
0.136765
0.13666
0.136553
0.136446
0.136338
0.13623
0.136121
0.136011
0.135901
0.135791
0.135681
0.13557
0.13546
0.135349
0.135238
0.135127
0.135017
0.134906
0.134796
0.134685
0.134576
0.134466
0.134357
0.134248
0.134139
0.134031
0.133924
0.133817
0.13371
0.133604
0.133499
0.133394
0.133289
0.133186
0.133083
0.132981
0.132879
0.132778
0.132678
0.132579
0.13248
0.132382
0.132285
0.132189
0.132093
0.131998
0.131904
0.131811
0.131719
0.131627
0.131536
0.131446
0.131357
0.131269
0.131182
0.131095
0.131009
0.130924
0.13084
0.130757
0.130674
0.130593
0.130512
0.130432
0.130353
0.130274
0.130197
0.13012
0.130044
0.129969
0.129894
0.129821
0.129748
0.129676
0.129604
0.129534
0.129464
0.129395
0.129327
0.129259
0.129192
0.129126
0.129061
0.128996
0.128932
0.128869
0.128806
0.128745
0.128683
0.128623
0.128563
0.128504
0.128445
0.128387
0.12833
0.128273
0.128217
0.128162
0.128107
0.128053
0.127999
0.127946
0.127894
0.127842
0.127791
0.12774
0.12769
0.12764
0.127591
0.127543
0.127495
0.127447
0.1274
0.127354
0.127308
0.127262
0.127218
0.127173
0.127129
0.127086
0.127043
0.127
0.126959
0.126917
0.126876
0.126835
0.126795
0.126756
0.126716
0.126678
0.126639
0.126602
0.126564
0.126527
0.126491
0.126455
0.126419
0.126384
0.126349
0.126314
0.12628
0.126247
0.126214
0.126181
0.126149
0.126117
0.126086
0.126055
0.126024
0.125994
0.125964
0.125935
0.125906
0.125878
0.12585
0.125823
0.125796
0.125769
0.125743
0.125717
0.125692
0.125667
0.125643
0.125619
0.125595
0.125573
0.12555
0.125528
0.125507
0.125486
0.125465
0.125445
0.125426
0.125407
0.125389
0.125371
0.125354
0.125337
0.125321
0.125305
0.12529
0.125275
0.125261
0.125248
0.125235
0.125223
0.125211
0.1252
0.12519
0.12518
0.125171
0.125162
0.125154
0.125147
0.12514
0.125133
0.125127
0.125122
0.125118
0.125113
0.12511
0.125106
0.125104
0.125101
0.125099
0.125098
0.125096
0.125095
0.125095
0.125094
0.125094
0.125093
0.125093
0.125093
0.125093
0.1
0.100002
0.100007
0.100016
0.100029
0.100045
0.100065
0.100089
0.100117
0.100148
0.100183
0.100222
0.100264
0.100311
0.100361
0.100416
0.100474
0.100537
0.100604
0.100675
0.100751
0.100831
0.100915
0.101005
0.101099
0.101198
0.101302
0.101412
0.101526
0.101646
0.101772
0.101903
0.10204
0.102184
0.102333
0.102488
0.10265
0.102819
0.102994
0.103177
0.103366
0.103562
0.103766
0.103977
0.104196
0.104422
0.104657
0.104899
0.10515
0.105409
0.105676
0.105952
0.106237
0.10653
0.106832
0.107143
0.107463
0.107792
0.10813
0.108477
0.108834
0.109199
0.109574
0.109957
0.110349
0.110751
0.111161
0.111579
0.112006
0.112441
0.112884
0.113335
0.113793
0.114258
0.11473
0.115209
0.115694
0.116185
0.11668
0.117181
0.117686
0.118195
0.118707
0.119223
0.11974
0.120259
0.12078
0.121301
0.121822
0.122342
0.122862
0.123379
0.123895
0.124407
0.124916
0.12542
0.12592
0.126415
0.126904
0.127386
0.127862
0.128331
0.128792
0.129245
0.129689
0.130124
0.13055
0.130967
0.131374
0.13177
0.132157
0.132532
0.132897
0.133251
0.133594
0.133926
0.134247
0.134557
0.134855
0.135142
0.135418
0.135683
0.135936
0.136179
0.13641
0.136631
0.136841
0.13704
0.137229
0.137407
0.137576
0.137734
0.137882
0.138021
0.138151
0.138271
0.138382
0.138484
0.138577
0.138663
0.138739
0.138808
0.138869
0.138922
0.138968
0.139007
0.139039
0.139064
0.139082
0.139094
0.1391
0.1391
0.139094
0.139082
0.139065
0.139043
0.139016
0.138985
0.138948
0.138907
0.138862
0.138813
0.138759
0.138702
0.138642
0.138578
0.13851
0.13844
0.138366
0.13829
0.138211
0.138129
0.138045
0.137959
0.13787
0.13778
0.137687
0.137593
0.137497
0.137399
0.1373
0.1372
0.137098
0.136995
0.136891
0.136786
0.13668
0.136573
0.136465
0.136357
0.136248
0.136139
0.136029
0.135919
0.135808
0.135698
0.135587
0.135476
0.135365
0.135254
0.135143
0.135032
0.134921
0.13481
0.1347
0.13459
0.13448
0.13437
0.134261
0.134152
0.134044
0.133936
0.133829
0.133722
0.133616
0.13351
0.133405
0.133301
0.133197
0.133094
0.132992
0.13289
0.132789
0.132688
0.132589
0.13249
0.132392
0.132295
0.132198
0.132102
0.132007
0.131913
0.13182
0.131727
0.131636
0.131545
0.131455
0.131366
0.131277
0.13119
0.131103
0.131017
0.130932
0.130847
0.130764
0.130681
0.1306
0.130519
0.130438
0.130359
0.130281
0.130203
0.130126
0.13005
0.129974
0.1299
0.129826
0.129753
0.129681
0.129609
0.129539
0.129469
0.129399
0.129331
0.129263
0.129196
0.12913
0.129064
0.128999
0.128935
0.128872
0.128809
0.128747
0.128686
0.128625
0.128565
0.128505
0.128447
0.128388
0.128331
0.128274
0.128218
0.128162
0.128107
0.128053
0.127999
0.127946
0.127893
0.127841
0.127789
0.127738
0.127688
0.127638
0.127589
0.12754
0.127492
0.127444
0.127397
0.12735
0.127304
0.127258
0.127213
0.127168
0.127124
0.127081
0.127037
0.126995
0.126952
0.126911
0.126869
0.126828
0.126788
0.126748
0.126709
0.126669
0.126631
0.126593
0.126555
0.126518
0.126481
0.126444
0.126408
0.126373
0.126338
0.126303
0.126269
0.126235
0.126201
0.126168
0.126136
0.126104
0.126072
0.126041
0.12601
0.125979
0.125949
0.12592
0.125891
0.125862
0.125834
0.125806
0.125778
0.125751
0.125725
0.125699
0.125673
0.125648
0.125623
0.125599
0.125575
0.125552
0.125529
0.125507
0.125485
0.125464
0.125443
0.125422
0.125403
0.125383
0.125365
0.125346
0.125329
0.125312
0.125295
0.125279
0.125263
0.125249
0.125234
0.12522
0.125207
0.125195
0.125183
0.125171
0.12516
0.12515
0.125141
0.125131
0.125123
0.125115
0.125108
0.125101
0.125095
0.125089
0.125084
0.12508
0.125076
0.125072
0.125069
0.125067
0.125065
0.125063
0.125061
0.12506
0.125059
0.125059
0.125058
0.125058
0.125057
0.125057
0.125057
0.1
0.100002
0.100007
0.100016
0.100029
0.100045
0.100065
0.100089
0.100116
0.100147
0.100181
0.10022
0.100262
0.100309
0.100359
0.100413
0.100471
0.100533
0.1006
0.100671
0.100746
0.100825
0.10091
0.100998
0.101092
0.101191
0.101294
0.101403
0.101517
0.101636
0.101761
0.101892
0.102029
0.102171
0.10232
0.102475
0.102636
0.102804
0.102979
0.10316
0.103349
0.103545
0.103748
0.103958
0.104177
0.104403
0.104636
0.104878
0.105129
0.105387
0.105654
0.10593
0.106214
0.106507
0.106809
0.10712
0.10744
0.10777
0.108108
0.108456
0.108812
0.109178
0.109554
0.109938
0.110331
0.110733
0.111144
0.111564
0.111992
0.112429
0.112874
0.113326
0.113786
0.114253
0.114728
0.115209
0.115696
0.116189
0.116687
0.117191
0.117698
0.11821
0.118725
0.119243
0.119764
0.120286
0.12081
0.121334
0.121858
0.122381
0.122904
0.123424
0.123942
0.124457
0.124969
0.125476
0.125979
0.126476
0.126967
0.127452
0.12793
0.128401
0.128864
0.129318
0.129764
0.130201
0.130628
0.131046
0.131454
0.131851
0.132238
0.132615
0.13298
0.133334
0.133678
0.13401
0.134331
0.13464
0.134938
0.135225
0.1355
0.135765
0.136018
0.136259
0.13649
0.13671
0.136919
0.137118
0.137305
0.137483
0.13765
0.137807
0.137955
0.138093
0.138221
0.13834
0.13845
0.138551
0.138643
0.138727
0.138803
0.13887
0.13893
0.138982
0.139027
0.139065
0.139095
0.139119
0.139136
0.139147
0.139152
0.139151
0.139144
0.139131
0.139114
0.13909
0.139062
0.13903
0.138992
0.13895
0.138904
0.138854
0.1388
0.138742
0.138681
0.138616
0.138547
0.138476
0.138402
0.138325
0.138245
0.138163
0.138078
0.137991
0.137902
0.13781
0.137717
0.137622
0.137525
0.137427
0.137327
0.137226
0.137124
0.13702
0.136916
0.13681
0.136704
0.136596
0.136488
0.13638
0.13627
0.136161
0.13605
0.13594
0.135829
0.135718
0.135607
0.135495
0.135384
0.135272
0.135161
0.13505
0.134939
0.134828
0.134717
0.134606
0.134496
0.134387
0.134277
0.134168
0.13406
0.133952
0.133844
0.133737
0.13363
0.133525
0.133419
0.133315
0.133211
0.133107
0.133005
0.132903
0.132801
0.132701
0.132601
0.132502
0.132404
0.132306
0.13221
0.132114
0.132018
0.131924
0.131831
0.131738
0.131646
0.131555
0.131465
0.131375
0.131287
0.131199
0.131112
0.131026
0.13094
0.130856
0.130772
0.130689
0.130607
0.130526
0.130446
0.130366
0.130288
0.13021
0.130133
0.130056
0.129981
0.129906
0.129832
0.129759
0.129686
0.129614
0.129544
0.129473
0.129404
0.129335
0.129267
0.1292
0.129133
0.129068
0.129003
0.128938
0.128874
0.128811
0.128749
0.128687
0.128626
0.128566
0.128506
0.128447
0.128389
0.128331
0.128274
0.128218
0.128162
0.128106
0.128052
0.127997
0.127944
0.127891
0.127839
0.127787
0.127735
0.127685
0.127635
0.127585
0.127536
0.127487
0.127439
0.127392
0.127345
0.127298
0.127252
0.127207
0.127162
0.127117
0.127073
0.12703
0.126986
0.126944
0.126902
0.12686
0.126819
0.126778
0.126738
0.126698
0.126658
0.126619
0.126581
0.126543
0.126505
0.126468
0.126431
0.126395
0.126359
0.126323
0.126288
0.126253
0.126219
0.126185
0.126152
0.126119
0.126086
0.126054
0.126022
0.125991
0.12596
0.12593
0.1259
0.12587
0.125841
0.125812
0.125784
0.125756
0.125728
0.125702
0.125675
0.125649
0.125623
0.125598
0.125573
0.125549
0.125525
0.125502
0.125479
0.125457
0.125435
0.125414
0.125393
0.125373
0.125353
0.125334
0.125315
0.125297
0.125279
0.125262
0.125246
0.12523
0.125214
0.1252
0.125185
0.125172
0.125159
0.125146
0.125134
0.125123
0.125112
0.125102
0.125093
0.125084
0.125075
0.125068
0.125061
0.125054
0.125048
0.125043
0.125038
0.125034
0.12503
0.125026
0.125023
0.125021
0.125019
0.125017
0.125016
0.125015
0.125014
0.125013
0.125013
0.125012
0.125012
0.125012
0.1
0.100002
0.100007
0.100016
0.100029
0.100045
0.100064
0.100088
0.100115
0.100146
0.10018
0.100218
0.10026
0.100306
0.100356
0.10041
0.100467
0.100529
0.100595
0.100666
0.10074
0.100819
0.100903
0.100991
0.101084
0.101182
0.101285
0.101393
0.101506
0.101625
0.101749
0.101879
0.102015
0.102156
0.102304
0.102458
0.102619
0.102786
0.10296
0.103141
0.103329
0.103524
0.103726
0.103936
0.104154
0.104379
0.104612
0.104854
0.105103
0.105362
0.105628
0.105903
0.106187
0.10648
0.106782
0.107093
0.107414
0.107743
0.108082
0.10843
0.108787
0.109154
0.10953
0.109915
0.110309
0.110712
0.111125
0.111546
0.111976
0.112414
0.112861
0.113315
0.113778
0.114248
0.114724
0.115208
0.115698
0.116194
0.116695
0.117202
0.117713
0.118228
0.118746
0.119268
0.119792
0.120318
0.120845
0.121372
0.1219
0.122427
0.122953
0.123477
0.123999
0.124517
0.125032
0.125542
0.126048
0.126548
0.127042
0.12753
0.128011
0.128484
0.128949
0.129405
0.129853
0.130292
0.130721
0.13114
0.131549
0.131947
0.132335
0.132712
0.133078
0.133433
0.133776
0.134109
0.134429
0.134739
0.135037
0.135323
0.135598
0.135861
0.136114
0.136355
0.136585
0.136804
0.137012
0.137209
0.137396
0.137572
0.137738
0.137894
0.13804
0.138177
0.138304
0.138421
0.13853
0.13863
0.138721
0.138803
0.138878
0.138944
0.139002
0.139053
0.139096
0.139133
0.139162
0.139185
0.1392
0.13921
0.139214
0.139211
0.139203
0.139189
0.13917
0.139146
0.139117
0.139083
0.139044
0.139001
0.138954
0.138903
0.138848
0.138789