# vtk DataFile Version 3.0
LBM Fluid Grid
ASCII
DATASET STRUCTURED_POINTS
DIMENSIONS 400 150 1
ORIGIN 0 0 0
SPACING 1 1 1
POINT_DATA 60000
SCALARS VelocityMagnitude double 1
LOOKUP_TABLE default
0.1
0.100001
0.100005
0.100014
0.100026
0.100042
0.100061
0.100085
0.100112
0.100143
0.100178
0.100217
0.10026
0.100306
0.100357
0.100411
0.10047
0.100532
0.100599
0.100671
0.100746
0.100827
0.100912
0.101001
0.101096
0.101196
0.1013
0.101411
0.101526
0.101647
0.101774
0.101906
0.102045
0.102189
0.10234
0.102497
0.10266
0.10283
0.103007
0.10319
0.103381
0.103578
0.103783
0.103995
0.104215
0.104443
0.104678
0.104921
0.105172
0.105432
0.105699
0.105976
0.10626
0.106554
0.106856
0.107167
0.107486
0.107815
0.108152
0.108499
0.108854
0.109218
0.109591
0.109973
0.110363
0.110762
0.111169
0.111585
0.112009
0.112441
0.11288
0.113327
0.113781
0.114241
0.114709
0.115182
0.115662
0.116147
0.116637
0.117132
0.117631
0.118133
0.118639
0.119148
0.119659
0.120172
0.120685
0.1212
0.121714
0.122228
0.122741
0.123252
0.123761
0.124267
0.124769
0.125268
0.125762
0.126251
0.126735
0.127213
0.127684
0.128148
0.128605
0.129054
0.129495
0.129927
0.13035
0.130764
0.131169
0.131564
0.131948
0.132323
0.132687
0.13304
0.133383
0.133714
0.134035
0.134345
0.134644
0.134932
0.135209
0.135475
0.13573
0.135974
0.136207
0.13643
0.136642
0.136843
0.137034
0.137215
0.137386
0.137547
0.137698
0.137839
0.137971
0.138094
0.138207
0.138312
0.138409
0.138496
0.138576
0.138647
0.138711
0.138767
0.138816
0.138857
0.138891
0.138919
0.13894
0.138954
0.138963
0.138965
0.138961
0.138952
0.138938
0.138918
0.138893
0.138864
0.13883
0.138791
0.138748
0.138701
0.13865
0.138595
0.138536
0.138474
0.138408
0.13834
0.138268
0.138194
0.138116
0.138036
0.137954
0.137869
0.137782
0.137693
0.137602
0.137509
0.137415
0.137318
0.137221
0.137121
0.137021
0.136919
0.136816
0.136712
0.136607
0.136502
0.136395
0.136288
0.13618
0.136072
0.135963
0.135854
0.135744
0.135634
0.135524
0.135414
0.135304
0.135193
0.135083
0.134973
0.134863
0.134753
0.134643
0.134534
0.134424
0.134316
0.134207
0.134099
0.133991
0.133884
0.133777
0.133671
0.133565
0.13346
0.133356
0.133252
0.133148
0.133046
0.132944
0.132842
0.132742
0.132642
0.132543
0.132444
0.132347
0.13225
0.132153
0.132058
0.131964
0.13187
0.131777
0.131685
0.131593
0.131503
0.131413
0.131324
0.131236
0.131149
0.131063
0.130977
0.130893
0.130809
0.130726
0.130643
0.130562
0.130481
0.130402
0.130323
0.130245
0.130167
0.130091
0.130015
0.12994
0.129866
0.129793
0.12972
0.129648
0.129577
0.129507
0.129437
0.129369
0.129301
0.129234
0.129167
0.129101
0.129036
0.128972
0.128908
0.128845
0.128783
0.128722
0.128661
0.128601
0.128541
0.128482
0.128424
0.128366
0.12831
0.128253
0.128198
0.128143
0.128088
0.128034
0.127981
0.127929
0.127877
0.127825
0.127774
0.127724
0.127674
0.127625
0.127577
0.127528
0.127481
0.127434
0.127388
0.127342
0.127296
0.127251
0.127207
0.127163
0.12712
0.127077
0.127034
0.126992
0.126951
0.12691
0.126869
0.126829
0.12679
0.126751
0.126712
0.126674
0.126636
0.126599
0.126562
0.126526
0.12649
0.126454
0.126419
0.126385
0.12635
0.126317
0.126283
0.12625
0.126218
0.126186
0.126154
0.126123
0.126092
0.126062
0.126032
0.126003
0.125974
0.125945
0.125917
0.125889
0.125862
0.125835
0.125809
0.125783
0.125758
0.125733
0.125708
0.125684
0.12566
0.125637
0.125615
0.125592
0.125571
0.125549
0.125529
0.125509
0.125489
0.12547
0.125451
0.125433
0.125415
0.125398
0.125381
0.125365
0.12535
0.125335
0.125321
0.125307
0.125294
0.125281
0.125269
0.125258
0.125247
0.125236
0.125227
0.125217
0.125209
0.125201
0.125193
0.125186
0.12518
0.125174
0.125169
0.125165
0.12516
0.125157
0.125154
0.125151
0.125148
0.125147
0.125145
0.125144
0.125143
0.125142
0.125142
0.125141
0.125141
0.125141
0.125141
0.12514
0.12514
0.1
0.100001
0.100005
0.100014
0.100026
0.100042
0.100061
0.100085
0.100112
0.100143
0.100178
0.100217
0.100259
0.100306
0.100356
0.100411
0.100469
0.100532
0.100599
0.10067
0.100746
0.100826
0.100911
0.101001
0.101095
0.101195
0.1013
0.10141
0.101525
0.101646
0.101773
0.101905
0.102044
0.102188
0.102339
0.102496
0.102659
0.102829
0.103005
0.103189
0.103379
0.103577
0.103782
0.103994
0.104213
0.104441
0.104676
0.104919
0.10517
0.10543
0.105697
0.105974
0.106258
0.106552
0.106854
0.107165
0.107484
0.107813
0.10815
0.108497
0.108852
0.109216
0.109589
0.109971
0.110362
0.110761
0.111168
0.111584
0.112008
0.11244
0.112879
0.113326
0.11378
0.114241
0.114709
0.115183
0.115662
0.116147
0.116638
0.117133
0.117632
0.118135
0.118641
0.11915
0.119661
0.120174
0.120688
0.121203
0.121717
0.122231
0.122744
0.123256
0.123765
0.124271
0.124774
0.125273
0.125768
0.126257
0.126741
0.127219
0.12769
0.128155
0.128612
0.129061
0.129502
0.129934
0.130357
0.130772
0.131176
0.131571
0.131956
0.13233
0.132694
0.133047
0.13339
0.133722
0.134043
0.134353
0.134652
0.13494
0.135217
0.135483
0.135737
0.135981
0.136215
0.136437
0.136649
0.13685
0.137041
0.137222
0.137393
0.137553
0.137704
0.137846
0.137977
0.1381
0.138214
0.138319
0.138415
0.138502
0.138582
0.138653
0.138717
0.138773
0.138821
0.138862
0.138896
0.138924
0.138945
0.138959
0.138967
0.13897
0.138966
0.138957
0.138942
0.138923
0.138898
0.138868
0.138834
0.138795
0.138752
0.138705
0.138653
0.138598
0.13854
0.138477
0.138412
0.138343
0.138271
0.138197
0.138119
0.138039
0.137957
0.137872
0.137785
0.137696
0.137605
0.137512
0.137417
0.137321
0.137223
0.137124
0.137023
0.136921
0.136818
0.136714
0.13661
0.136504
0.136397
0.13629
0.136182
0.136074
0.135965
0.135856
0.135746
0.135636
0.135526
0.135416
0.135306
0.135195
0.135085
0.134975
0.134865
0.134755
0.134645
0.134535
0.134426
0.134317
0.134209
0.1341
0.133993
0.133885
0.133779
0.133672
0.133567
0.133462
0.133357
0.133253
0.13315
0.133047
0.132945
0.132844
0.132743
0.132643
0.132544
0.132445
0.132348
0.132251
0.132155
0.132059
0.131965
0.131871
0.131778
0.131686
0.131595
0.131504
0.131414
0.131325
0.131237
0.13115
0.131064
0.130978
0.130894
0.13081
0.130727
0.130644
0.130563
0.130482
0.130403
0.130324
0.130245
0.130168
0.130092
0.130016
0.129941
0.129867
0.129793
0.129721
0.129649
0.129578
0.129508
0.129438
0.129369
0.129301
0.129234
0.129168
0.129102
0.129037
0.128972
0.128909
0.128846
0.128784
0.128722
0.128661
0.128601
0.128541
0.128482
0.128424
0.128367
0.12831
0.128254
0.128198
0.128143
0.128088
0.128035
0.127981
0.127929
0.127877
0.127825
0.127774
0.127724
0.127674
0.127625
0.127576
0.127528
0.127481
0.127434
0.127387
0.127341
0.127296
0.127251
0.127207
0.127163
0.127119
0.127076
0.127034
0.126992
0.12695
0.126909
0.126869
0.126829
0.126789
0.12675
0.126712
0.126673
0.126636
0.126598
0.126561
0.126525
0.126489
0.126453
0.126418
0.126384
0.126349
0.126316
0.126282
0.126249
0.126217
0.126185
0.126153
0.126122
0.126091
0.126061
0.126031
0.126001
0.125972
0.125944
0.125916
0.125888
0.12586
0.125834
0.125807
0.125781
0.125756
0.125731
0.125706
0.125682
0.125658
0.125635
0.125613
0.12559
0.125569
0.125547
0.125527
0.125506
0.125487
0.125467
0.125449
0.12543
0.125413
0.125396
0.125379
0.125363
0.125347
0.125332
0.125318
0.125304
0.125291
0.125278
0.125266
0.125255
0.125244
0.125233
0.125223
0.125214
0.125206
0.125198
0.12519
0.125183
0.125177
0.125171
0.125166
0.125161
0.125157
0.125153
0.12515
0.125147
0.125145
0.125143
0.125141
0.12514
0.125139
0.125139
0.125138
0.125138
0.125137
0.125137
0.125137
0.125137
0.125137
0.1
0.100001
0.100005
0.100014
0.100026
0.100042
0.100061
0.100085
0.100112
0.100143
0.100178
0.100216
0.100259
0.100305
0.100356
0.10041
0.100469
0.100531
0.100598
0.100669
0.100745
0.100825
0.10091
0.100999
0.101094
0.101193
0.101298
0.101408
0.101523
0.101644
0.10177
0.101902
0.102041
0.102185
0.102335
0.102492
0.102655
0.102825
0.103001
0.103185
0.103375
0.103572
0.103777
0.103989
0.104208
0.104436
0.104671
0.104914
0.105165
0.105424
0.105692
0.105968
0.106252
0.106546
0.106848
0.107159
0.107478
0.107807
0.108145
0.108491
0.108847
0.109211
0.109584
0.109966
0.110357
0.110756
0.111164
0.11158
0.112004
0.112436
0.112876
0.113324
0.113778
0.11424
0.114708
0.115183
0.115663
0.116149
0.11664
0.117136
0.117635
0.118139
0.118646
0.119156
0.119668
0.120181
0.120696
0.121212
0.121727
0.122242
0.122756
0.123268
0.123778
0.124285
0.124789
0.125288
0.125784
0.126274
0.126758
0.127237
0.127709
0.128174
0.128631
0.129081
0.129522
0.129955
0.130379
0.130793
0.131198
0.131593
0.131978
0.132353
0.132717
0.13307
0.133413
0.133745
0.134066
0.134376
0.134675
0.134962
0.135239
0.135505
0.13576
0.136004
0.136237
0.136459
0.13667
0.136872
0.137062
0.137243
0.137413
0.137573
0.137724
0.137865
0.137997
0.138119
0.138232
0.138337
0.138433
0.13852
0.138599
0.13867
0.138733
0.138789
0.138837
0.138878
0.138912
0.138939
0.13896
0.138974
0.138982
0.138984
0.13898
0.138971
0.138956
0.138936
0.138911
0.138881
0.138846
0.138807
0.138764
0.138716
0.138665
0.138609
0.13855
0.138488
0.138422
0.138353
0.138281
0.138206
0.138129
0.138049
0.137966
0.137881
0.137794
0.137705
0.137613
0.13752
0.137425
0.137329
0.137231
0.137131
0.137031
0.136929
0.136826
0.136721
0.136616
0.13651
0.136404
0.136296
0.136188
0.13608
0.135971
0.135862
0.135752
0.135642
0.135532
0.135421
0.135311
0.135201
0.13509
0.13498
0.13487
0.13476
0.13465
0.13454
0.134431
0.134322
0.134213
0.134105
0.133997
0.13389
0.133783
0.133677
0.133571
0.133466
0.133361
0.133257
0.133154
0.133051
0.132949
0.132847
0.132747
0.132647
0.132548
0.132449
0.132351
0.132254
0.132158
0.132063
0.131968
0.131874
0.131781
0.131689
0.131598
0.131507
0.131417
0.131328
0.13124
0.131153
0.131067
0.130981
0.130896
0.130812
0.130729
0.130647
0.130566
0.130485
0.130405
0.130326
0.130248
0.13017
0.130094
0.130018
0.129943
0.129869
0.129795
0.129723
0.129651
0.12958
0.12951
0.12944
0.129371
0.129303
0.129236
0.129169
0.129103
0.129038
0.128974
0.12891
0.128847
0.128785
0.128723
0.128662
0.128602
0.128542
0.128483
0.128425
0.128368
0.128311
0.128254
0.128198
0.128143
0.128089
0.128035
0.127982
0.127929
0.127877
0.127825
0.127774
0.127724
0.127674
0.127625
0.127576
0.127528
0.12748
0.127433
0.127387
0.127341
0.127295
0.12725
0.127206
0.127162
0.127118
0.127075
0.127033
0.126991
0.126949
0.126908
0.126867
0.126827
0.126787
0.126748
0.126709
0.126671
0.126633
0.126596
0.126559
0.126522
0.126486
0.126451
0.126415
0.126381
0.126346
0.126312
0.126279
0.126246
0.126213
0.126181
0.126149
0.126118
0.126087
0.126057
0.126027
0.125997
0.125968
0.125939
0.125911
0.125883
0.125856
0.125829
0.125802
0.125776
0.12575
0.125725
0.125701
0.125676
0.125653
0.125629
0.125606
0.125584
0.125562
0.125541
0.12552
0.1255
0.12548
0.12546
0.125441
0.125423
0.125405
0.125388
0.125371
0.125355
0.125339
0.125324
0.12531
0.125296
0.125283
0.12527
0.125257
0.125246
0.125235
0.125224
0.125214
0.125205
0.125196
0.125188
0.12518
0.125173
0.125167
0.125161
0.125156
0.125151
0.125147
0.125143
0.12514
0.125137
0.125134
0.125132
0.125131
0.125129
0.125128
0.125128
0.125127
0.125127
0.125126
0.125126
0.125126
0.125125
0.125125
0.1
0.100001
0.100005
0.100014
0.100026
0.100041
0.100061
0.100084
0.100112
0.100143
0.100177
0.100216
0.100258
0.100305
0.100355
0.100409
0.100467
0.10053
0.100596
0.100667
0.100743
0.100822
0.100907
0.100996
0.10109
0.10119
0.101294
0.101404
0.101519
0.101639
0.101766
0.101898
0.102035
0.102179
0.10233
0.102486
0.102649
0.102818
0.102994
0.103177
0.103367
0.103564
0.103769
0.10398
0.1042
0.104427
0.104662
0.104904
0.105155
0.105414
0.105682
0.105958
0.106243
0.106536
0.106838
0.107149
0.107469
0.107797
0.108135
0.108482
0.108837
0.109202
0.109575
0.109958
0.110349
0.110749
0.111157
0.111574
0.111998
0.112431
0.112872
0.11332
0.113776
0.114238
0.114707
0.115183
0.115664
0.116151
0.116643
0.11714
0.117641
0.118146
0.118655
0.119166
0.119679
0.120194
0.12071
0.121227
0.121744
0.12226
0.122775
0.123289
0.1238
0.124308
0.124813
0.125314
0.12581
0.126301
0.126787
0.127267
0.12774
0.128205
0.128664
0.129114
0.129556
0.12999
0.130414
0.130829
0.131234
0.13163
0.132015
0.13239
0.132754
0.133108
0.133451
0.133783
0.134104
0.134414
0.134712
0.135
0.135277
0.135542
0.135797
0.13604
0.136273
0.136495
0.136706
0.136907
0.137097
0.137277
0.137447
0.137607
0.137757
0.137898
0.138029
0.138151
0.138264
0.138368
0.138463
0.13855
0.138628
0.138699
0.138762
0.138817
0.138864
0.138905
0.138938
0.138965
0.138985
0.138998
0.139006
0.139007
0.139003
0.138993
0.138978
0.138957
0.138932
0.138901
0.138866
0.138827
0.138783
0.138735
0.138683
0.138628
0.138568
0.138505
0.138439
0.13837
0.138298
0.138223
0.138145
0.138064
0.137981
0.137896
0.137808
0.137719
0.137627
0.137534
0.137439
0.137342
0.137244
0.137144
0.137043
0.136941
0.136837
0.136733
0.136628
0.136522
0.136415
0.136307
0.136199
0.13609
0.135981
0.135871
0.135762
0.135651
0.135541
0.135431
0.13532
0.135209
0.135099
0.134988
0.134878
0.134768
0.134658
0.134548
0.134439
0.13433
0.134221
0.134113
0.134005
0.133897
0.13379
0.133684
0.133578
0.133473
0.133368
0.133264
0.13316
0.133057
0.132955
0.132854
0.132753
0.132653
0.132554
0.132455
0.132357
0.13226
0.132164
0.132068
0.131974
0.13188
0.131787
0.131694
0.131603
0.131512
0.131422
0.131333
0.131245
0.131158
0.131071
0.130986
0.130901
0.130817
0.130734
0.130651
0.13057
0.130489
0.130409
0.13033
0.130252
0.130174
0.130098
0.130022
0.129947
0.129872
0.129799
0.129726
0.129654
0.129583
0.129513
0.129443
0.129374
0.129306
0.129239
0.129172
0.129106
0.129041
0.128976
0.128912
0.128849
0.128787
0.128725
0.128664
0.128604
0.128544
0.128485
0.128427
0.128369
0.128312
0.128255
0.128199
0.128144
0.12809
0.128036
0.127982
0.127929
0.127877
0.127825
0.127774
0.127724
0.127674
0.127624
0.127576
0.127527
0.12748
0.127432
0.127386
0.127339
0.127294
0.127249
0.127204
0.12716
0.127116
0.127073
0.12703
0.126988
0.126946
0.126905
0.126864
0.126824
0.126784
0.126745
0.126706
0.126667
0.126629
0.126592
0.126555
0.126518
0.126482
0.126446
0.12641
0.126376
0.126341
0.126307
0.126273
0.12624
0.126207
0.126175
0.126143
0.126111
0.12608
0.12605
0.126019
0.12599
0.12596
0.125931
0.125903
0.125875
0.125847
0.12582
0.125793
0.125767
0.125741
0.125716
0.125691
0.125667
0.125643
0.125619
0.125596
0.125573
0.125551
0.12553
0.125509
0.125488
0.125468
0.125448
0.125429
0.125411
0.125393
0.125375
0.125358
0.125342
0.125326
0.125311
0.125296
0.125282
0.125268
0.125255
0.125243
0.125231
0.12522
0.125209
0.125199
0.125189
0.12518
0.125172
0.125164
0.125157
0.12515
0.125144
0.125139
0.125134
0.125129
0.125125
0.125122
0.125119
0.125116
0.125114
0.125112
0.125111
0.12511
0.125109
0.125108
0.125108
0.125107
0.125107
0.125107
0.125106
0.125106
0.1
0.100001
0.100005
0.100013
0.100025
0.100041
0.100061
0.100084
0.100111
0.100142
0.100177
0.100215
0.100257
0.100303
0.100353
0.100407
0.100465
0.100527
0.100594
0.100664
0.10074
0.100819
0.100903
0.100992
0.101086
0.101185
0.101289
0.101398
0.101513
0.101633
0.101759
0.101891
0.102028
0.102172
0.102321
0.102477
0.10264
0.102809
0.102985
0.103167
0.103357
0.103553
0.103757
0.103969
0.104188
0.104414
0.104649
0.104891
0.105142
0.105401
0.105668
0.105944
0.106229
0.106522
0.106824
0.107135
0.107455
0.107783
0.108121
0.108468
0.108824
0.109189
0.109563
0.109946
0.110338
0.110738
0.111147
0.111565
0.11199
0.112424
0.112866
0.113315
0.113772
0.114236
0.114706
0.115183
0.115666
0.116154
0.116648
0.117147
0.11765
0.118156
0.118666
0.119179
0.119694
0.120211
0.120729
0.121248
0.121767
0.122285
0.122802
0.123317
0.12383
0.12434
0.124847
0.12535
0.125848
0.12634
0.126828
0.127309
0.127783
0.12825
0.12871
0.129161
0.129604
0.130039
0.130464
0.130879
0.131285
0.131681
0.132067
0.132442
0.132807
0.133161
0.133504
0.133836
0.134157
0.134467
0.134765
0.135053
0.135329
0.135595
0.135849
0.136092
0.136324
0.136546
0.136756
0.136956
0.137146
0.137326
0.137495
0.137654
0.137804
0.137944
0.138074
0.138195
0.138307
0.13841
0.138505
0.138591
0.138669
0.138739
0.138801
0.138855
0.138902
0.138942
0.138974
0.139
0.13902
0.139033
0.139039
0.13904
0.139035
0.139025
0.139009
0.138988
0.138961
0.13893
0.138895
0.138855
0.13881
0.138762
0.138709
0.138653
0.138593
0.13853
0.138463
0.138394
0.138321
0.138245
0.138167
0.138086
0.138002
0.137917
0.137829
0.137739
0.137647
0.137553
0.137457
0.13736
0.137261
0.137161
0.13706
0.136957
0.136854
0.136749
0.136644
0.136537
0.13643
0.136322
0.136214
0.136105
0.135995
0.135885
0.135775
0.135665
0.135554
0.135443
0.135333
0.135222
0.135111
0.135
0.13489
0.134779
0.134669
0.134559
0.13445
0.13434
0.134232
0.134123
0.134015
0.133907
0.1338
0.133694
0.133588
0.133482
0.133377
0.133273
0.133169
0.133066
0.132964
0.132862
0.132762
0.132661
0.132562
0.132463
0.132365
0.132268
0.132172
0.132076
0.131981
0.131887
0.131794
0.131702
0.13161
0.131519
0.131429
0.13134
0.131252
0.131165
0.131078
0.130992
0.130907
0.130823
0.13074
0.130657
0.130576
0.130495
0.130415
0.130336
0.130257
0.13018
0.130103
0.130027
0.129952
0.129877
0.129804
0.129731
0.129659
0.129587
0.129517
0.129447
0.129378
0.12931
0.129242
0.129175
0.129109
0.129044
0.128979
0.128915
0.128852
0.128789
0.128728
0.128666
0.128606
0.128546
0.128487
0.128428
0.12837
0.128313
0.128256
0.1282
0.128145
0.12809
0.128036
0.127982
0.127929
0.127877
0.127825
0.127774
0.127723
0.127673
0.127623
0.127574
0.127526
0.127478
0.127431
0.127384
0.127337
0.127291
0.127246
0.127201
0.127157
0.127113
0.12707
0.127027
0.126984
0.126942
0.126901
0.12686
0.126819
0.126779
0.12674
0.1267
0.126662
0.126623
0.126586
0.126548
0.126511
0.126475
0.126439
0.126403
0.126368
0.126333
0.126299
0.126265
0.126231
0.126198
0.126166
0.126134
0.126102
0.12607
0.12604
0.126009
0.125979
0.125949
0.12592
0.125891
0.125863
0.125835
0.125808
0.125781
0.125754
0.125728
0.125702
0.125677
0.125652
0.125628
0.125604
0.125581
0.125558
0.125536
0.125514
0.125493
0.125472
0.125451
0.125431
0.125412
0.125393
0.125375
0.125357
0.12534
0.125323
0.125307
0.125291
0.125276
0.125262
0.125248
0.125234
0.125222
0.12521
0.125198
0.125187
0.125177
0.125167
0.125157
0.125149
0.125141
0.125133
0.125126
0.12512
0.125114
0.125109
0.125104
0.1251
0.125096
0.125093
0.12509
0.125088
0.125086
0.125085
0.125083
0.125082
0.125082
0.125081
0.125081
0.12508
0.12508
0.125079
0.125079
0.1
0.100001
0.100005
0.100013
0.100025
0.100041
0.10006
0.100084
0.10011
0.100141
0.100176
0.100214
0.100256
0.100302
0.100351
0.100405
0.100463
0.100525
0.100591
0.100661
0.100736
0.100815
0.100899
0.100987
0.101081
0.101179
0.101283
0.101391
0.101506
0.101625
0.101751
0.101882
0.102019
0.102162
0.102311
0.102466
0.102628
0.102797
0.102972
0.103154
0.103343
0.103539
0.103743
0.103954
0.104172
0.104398
0.104633
0.104875
0.105125
0.105384
0.105651
0.105926
0.106211
0.106504
0.106806
0.107117
0.107437
0.107766
0.108104
0.108451
0.108807
0.109173
0.109547
0.109931
0.110323
0.110724
0.111134
0.111553
0.11198
0.112415
0.112858
0.113309
0.113767
0.114232
0.114704
0.115183
0.115668
0.116158
0.116654
0.117155
0.11766
0.118169
0.118681
0.119197
0.119714
0.120233
0.120754
0.121275
0.121796
0.122317
0.122836
0.123354
0.12387
0.124382
0.124891
0.125396
0.125896
0.126391
0.12688
0.127363
0.127839
0.128307
0.128768
0.129221
0.129666
0.130101
0.130528
0.130944
0.131351
0.131748
0.132134
0.13251
0.132875
0.133229
0.133572
0.133905
0.134226
0.134535
0.134834
0.135121
0.135397
0.135662
0.135916
0.136158
0.13639
0.136611
0.136821
0.13702
0.137209
0.137388
0.137556
0.137715
0.137863
0.138002
0.138132
0.138252
0.138363
0.138465
0.138559
0.138644
0.138721
0.13879
0.138851
0.138905
0.138951
0.138989
0.139021
0.139046
0.139065
0.139077
0.139083
0.139083
0.139077
0.139065
0.139048
0.139027
0.139
0.138968
0.138931
0.13889
0.138845
0.138796
0.138743
0.138686
0.138625
0.138561
0.138494
0.138424
0.13835
0.138274
0.138195
0.138113
0.138029
0.137943
0.137855
0.137764
0.137671
0.137577
0.137481
0.137383
0.137284
0.137184
0.137082
0.136979
0.136875
0.13677
0.136664
0.136557
0.136449
0.136341
0.136232
0.136123
0.136013
0.135903
0.135793
0.135682
0.135571
0.13546
0.135349
0.135238
0.135127
0.135016
0.134905
0.134794
0.134684
0.134574
0.134464
0.134354
0.134245
0.134136
0.134028
0.13392
0.133813
0.133706
0.1336
0.133494
0.133389
0.133285
0.133181
0.133078
0.132975
0.132873
0.132772
0.132672
0.132572
0.132474
0.132375
0.132278
0.132182
0.132086
0.131991
0.131897
0.131803
0.131711
0.131619
0.131528
0.131438
0.131349
0.13126
0.131173
0.131086
0.131
0.130915
0.130831
0.130747
0.130665
0.130583
0.130502
0.130422
0.130342
0.130264
0.130186
0.130109
0.130033
0.129957
0.129883
0.129809
0.129736
0.129664
0.129592
0.129522
0.129452
0.129382
0.129314
0.129246
0.129179
0.129113
0.129047
0.128983
0.128918
0.128855
0.128792
0.12873
0.128669
0.128608
0.128548
0.128489
0.12843
0.128372
0.128314
0.128257
0.128201
0.128145
0.12809
0.128036
0.127982
0.127929
0.127876
0.127824
0.127773
0.127722
0.127671
0.127622
0.127572
0.127524
0.127475
0.127428
0.12738
0.127334
0.127288
0.127242
0.127197
0.127152
0.127108
0.127064
0.127021
0.126979
0.126936
0.126895
0.126853
0.126812
0.126772
0.126732
0.126693
0.126654
0.126615
0.126577
0.126539
0.126502
0.126465
0.126429
0.126393
0.126357
0.126322
0.126288
0.126253
0.12622
0.126186
0.126153
0.126121
0.126089
0.126057
0.126026
0.125995
0.125964
0.125934
0.125905
0.125876
0.125847
0.125819
0.125791
0.125764
0.125737
0.12571
0.125684
0.125659
0.125633
0.125609
0.125585
0.125561
0.125538
0.125515
0.125493
0.125471
0.12545
0.125429
0.125409
0.125389
0.12537
0.125351
0.125333
0.125315
0.125298
0.125281
0.125265
0.12525
0.125235
0.125221
0.125207
0.125194
0.125181
0.125169
0.125158
0.125147
0.125137
0.125127
0.125118
0.12511
0.125102
0.125095
0.125088
0.125082
0.125076
0.125071
0.125067
0.125063
0.125059
0.125056
0.125054
0.125052
0.12505
0.125048
0.125047
0.125046
0.125046
0.125045
0.125045
0.125044
0.125044
0.125044
0.1
0.100001
0.100005
0.100013
0.100025
0.100041
0.10006
0.100083
0.10011
0.10014
0.100174
0.100212
0.100254
0.1003
0.100349
0.100402
0.10046
0.100521
0.100587
0.100657
0.100731
0.10081
0.100893
0.100981
0.101074
0.101172
0.101275
0.101383
0.101497
0.101616
0.10174
0.101871
0.102007
0.10215
0.102298
0.102453
0.102614
0.102782
0.102957
0.103138
0.103326
0.103522
0.103725
0.103935
0.104153
0.104379
0.104612
0.104854
0.105104
0.105362
0.105629
0.105904
0.106189
0.106482
0.106783
0.107094
0.107414
0.107744
0.108082
0.108429
0.108786
0.109152
0.109527
0.109912
0.110305
0.110707
0.111118
0.111538
0.111966
0.112403
0.112848
0.1133
0.11376
0.114228
0.114702
0.115183
0.11567
0.116163
0.116661
0.117165
0.117673
0.118184
0.1187
0.119218
0.119738
0.120261
0.120784
0.121308
0.121833
0.122356
0.122879
0.123399
0.123918
0.124433
0.124945
0.125452
0.125955
0.126452
0.126944
0.127429
0.127907
0.128378
0.128841
0.129295
0.129741
0.130178
0.130606
0.131024
0.131432
0.131829
0.132216
0.132593
0.132958
0.133313
0.133656
0.133988
0.134309
0.134619
0.134917
0.135204
0.13548
0.135744
0.135997
0.136239
0.13647
0.13669
0.136899
0.137098
0.137286
0.137464
0.137631
0.137788
0.137936
0.138074
0.138202
0.138321
0.138432
0.138533
0.138625
0.138709
0.138785
0.138853
0.138913
0.138965
0.13901
0.139047
0.139078
0.139102
0.139119
0.13913
0.139135
0.139134
0.139127
0.139115
0.139097
0.139074
0.139046
0.139013
0.138976
0.138934
0.138888
0.138838
0.138784
0.138726
0.138665
0.1386
0.138532
0.13846
0.138386
0.138309
0.138229
0.138147
0.138062
0.137975
0.137886
0.137795
0.137702
0.137607
0.13751
0.137412
0.137312
0.137211
0.137109
0.137005
0.136901
0.136795
0.136688
0.136581
0.136473
0.136364
0.136255
0.136145
0.136035
0.135924
0.135814
0.135702
0.135591
0.13548
0.135368
0.135257
0.135145
0.135034
0.134923
0.134812
0.134701
0.134591
0.134481
0.134371
0.134261
0.134152
0.134044
0.133936
0.133828
0.133721
0.133615
0.133509
0.133403
0.133299
0.133195
0.133091
0.132989
0.132887
0.132785
0.132685
0.132585
0.132486
0.132388
0.13229
0.132193
0.132097
0.132002
0.131908
0.131814
0.131721
0.13163
0.131538
0.131448
0.131359
0.13127
0.131182
0.131095
0.131009
0.130924
0.130839
0.130756
0.130673
0.130591
0.13051
0.130429
0.13035
0.130271
0.130193
0.130116
0.13004
0.129964
0.129889
0.129815
0.129742
0.12967
0.129598
0.129527
0.129457
0.129387
0.129319
0.129251
0.129183
0.129117
0.129051
0.128986
0.128922
0.128858
0.128795
0.128733
0.128671
0.12861
0.12855
0.12849
0.128431
0.128373
0.128315
0.128258
0.128201
0.128145
0.12809
0.128035
0.127981
0.127928
0.127875
0.127822
0.12777
0.127719
0.127668
0.127618
0.127569
0.12752
0.127471
0.127423
0.127376
0.127329
0.127282
0.127236
0.127191
0.127146
0.127101
0.127057
0.127014
0.126971
0.126928
0.126886
0.126844
0.126803
0.126762
0.126722
0.126682
0.126643
0.126604
0.126565
0.126527
0.12649
0.126452
0.126416
0.126379
0.126343
0.126308
0.126273
0.126238
0.126204
0.12617
0.126137
0.126104
0.126071
0.126039
0.126007
0.125976
0.125945
0.125915
0.125885
0.125855
0.125826
0.125798
0.125769
0.125742
0.125714
0.125687
0.125661
0.125635
0.125609
0.125584
0.125559
0.125535
0.125511
0.125488
0.125465
0.125443
0.125421
0.1254
0.125379
0.125359
0.125339
0.12532
0.125302
0.125283
0.125266
0.125249
0.125232
0.125216
0.125201
0.125186
0.125172
0.125158
0.125145
0.125133
0.125121
0.12511
0.125099
0.125089
0.12508
0.125071
0.125063
0.125055
0.125048
0.125041
0.125035
0.12503
0.125025
0.125021
0.125017
0.125014
0.125011
0.125008
0.125006
0.125005
0.125003
0.125002
0.125001
0.125
0.125
0.124999
0.124999
0.124999
0.1
0.100001
0.100005
0.100013
0.100025
0.10004
0.100059
0.100082
0.100109
0.100139
0.100173
0.100211
0.100252
0.100297
0.100346
0.100399
0.100456
0.100517
0.100582
0.100652
0.100725
0.100803
0.100886
0.100974
0.101066
0.101163
0.101265
0.101373
0.101486
0.101604
0.101728
0.101858
0.101994
0.102135
0.102283
0.102437
0.102597
0.102764
0.102938
0.103119
0.103306
0.103501
0.103703
0.103913
0.10413
0.104355
0.104588
0.10483
0.105079
0.105337
0.105603
0.105878
0.106162
0.106455
0.106757
0.107068
0.107388
0.107717
0.108056
0.108404
0.108761
0.109128
0.109504
0.109889
0.110283
0.110687
0.111099
0.11152
0.11195
0.112389
0.112835
0.11329
0.113752
0.114222
0.114699
0.115182
0.115672
0.116168
0.11667
0.117176
0.117687
0.118202
0.118721
0.119243
0.119767
0.120293
0.12082
0.121347
0.121875
0.122403
0.122929
0.123453
0.123975
0.124493
0.125008
0.125519
0.126025
0.126525
0.127019
0.127507
0.127988
0.128461
0.128926
0.129383
0.129831
0.13027
0.130699
0.131118
0.131527
0.131926
0.132314
0.132691
0.133057
0.133412
0.133755
0.134088
0.134409
0.134718
0.135016
0.135303
0.135578
0.135841
0.136094
0.136335
0.136565
0.136784
0.136992
0.13719
0.137377
0.137553
0.13772
0.137876
0.138022
0.138159
0.138286
0.138403
0.138512
0.138612
0.138703
0.138786
0.13886
0.138927
0.138985
0.139036
0.13908
0.139116
0.139145
0.139168
0.139184
0.139194
0.139197
0.139195
0.139187
0.139173
0.139154
0.13913
0.139101
0.139067
0.139028
0.138985
0.138938
0.138887
0.138832
0.138773
0.138711
0.138645
0.138576
0.138504
0.138428
0.13835
0.13827
0.138187
0.138101
0.138013
0.137923
0.137831
0.137737
0.137642
0.137544
0.137445
0.137345
0.137243
0.13714
0.137036
0.136931
0.136824
0.136717
0.136609
0.136501
0.136391
0.136282
0.136171
0.136061
0.135949
0.135838
0.135726
0.135615
0.135503
0.135391
0.135279
0.135167
0.135056
0.134944
0.134833
0.134722
0.134611
0.1345
0.13439
0.13428
0.134171
0.134062
0.133954
0.133846
0.133738
0.133632
0.133525
0.13342
0.133315
0.133211
0.133107
0.133004
0.132902
0.1328
0.132699
0.132599
0.1325
0.132401
0.132304
0.132207
0.13211
0.132015
0.13192
0.131827
0.131734
0.131641
0.13155
0.13146
0.13137
0.131281
0.131193
0.131106
0.131019
0.130934
0.130849
0.130765
0.130682
0.1306
0.130518
0.130438
0.130358
0.130279
0.130201
0.130123
0.130047
0.129971
0.129896
0.129822
0.129748
0.129675
0.129603
0.129532
0.129462
0.129392
0.129323
0.129255
0.129187
0.12912
0.129054
0.128989
0.128924
0.12886
0.128797
0.128734
0.128672
0.128611
0.12855
0.12849
0.128431
0.128372
0.128314
0.128257
0.1282
0.128144
0.128088
0.128033
0.127979
0.127925
0.127871
0.127819
0.127766
0.127715
0.127664
0.127613
0.127563
0.127514
0.127465
0.127416
0.127368
0.127321
0.127274
0.127228
0.127182
0.127137
0.127092
0.127047
0.127003
0.12696
0.126917
0.126874
0.126832
0.126791
0.126749
0.126709
0.126668
0.126628
0.126589
0.12655
0.126512
0.126473
0.126436
0.126399
0.126362
0.126325
0.126289
0.126254
0.126219
0.126184
0.12615
0.126116
0.126082
0.126049
0.126017
0.125984
0.125953
0.125921
0.12589
0.12586
0.12583
0.1258
0.125771
0.125742
0.125714
0.125686
0.125658
0.125631
0.125605
0.125579
0.125553
0.125528
0.125503
0.125479
0.125455
0.125432
0.125409
0.125386
0.125365
0.125343
0.125322
0.125302
0.125282
0.125263
0.125244
0.125226
0.125209
0.125191
0.125175
0.125159
0.125144
0.125129
0.125115
0.125101
0.125088
0.125076
0.125064
0.125053
0.125042
0.125032
0.125023
0.125014
0.125006
0.124998
0.124991
0.124985
0.124979
0.124974
0.124969
0.124965
0.124961
0.124958
0.124955
0.124953
0.124951
0.124949
0.124948
0.124947
0.124946
0.124945
0.124944
0.124944
0.124944
0.1
0.100001
0.100005
0.100013
0.100025
0.10004
0.100059
0.100082
0.100108
0.100138
0.100171
0.100209
0.10025
0.100294
0.100343
0.100395
0.100452
0.100512
0.100577
0.100646
0.100719
0.100796
0.100878
0.100965
0.101057
0.101153
0.101255
0.101361
0.101474
0.101591
0.101714
0.101843
0.101978
0.102118
0.102265
0.102418
0.102578
0.102744
0.102917
0.103097
0.103283
0.103477
0.103679
0.103887
0.104104
0.104328
0.104561
0.104801
0.10505
0.105307
0.105573
0.105848
0.106132
0.106424
0.106726
0.107037
0.107357
0.107686
0.108025
0.108374
0.108732
0.109099
0.109476
0.109862
0.110258
0.110663
0.111077
0.1115
0.111931
0.112372
0.112821
0.113278
0.113743
0.114215
0.114695
0.115182
0.115675
0.116174
0.116679
0.117189
0.117704
0.118223
0.118745
0.119271
0.119799
0.120329
0.120861
0.121393
0.121925
0.122456
0.122986
0.123515
0.12404
0.124563
0.125082
0.125596
0.126105
0.126609
0.127107
0.127598
0.128081
0.128557
0.129025
0.129484
0.129934
0.130375
0.130806
0.131227
0.131637
0.132037
0.132426
0.132804
0.133171
0.133526
0.13387
0.134202
0.134523
0.134833
0.13513
0.135416
0.135691
0.135954
0.136205
0.136446
0.136675
0.136893
0.1371
0.137296
0.137481
0.137657
0.137821
0.137976
0.138121
0.138256
0.138382
0.138498
0.138605
0.138703
0.138793
0.138874
0.138947
0.139012
0.139069
0.139118
0.13916
0.139195
0.139222
0.139244
0.139258
0.139266
0.139268
0.139265
0.139255
0.13924
0.139219
0.139194
0.139163