# vtk DataFile Version 3.0
LBM Fluid Grid
ASCII
DATASET STRUCTURED_POINTS
DIMENSIONS 400 150 1
ORIGIN 0 0 0
SPACING 1 1 1
POINT_DATA 60000
SCALARS VelocityMagnitude double 1
LOOKUP_TABLE default
0.1
0.100002
0.100007
0.100016
0.100029
0.100046
0.100067
0.100091
0.100119
0.100151
0.100187
0.100226
0.10027
0.100317
0.100368
0.100424
0.100483
0.100547
0.100614
0.100686
0.100763
0.100844
0.100929
0.101019
0.101115
0.101215
0.10132
0.10143
0.101546
0.101667
0.101794
0.101927
0.102066
0.10221
0.102361
0.102518
0.102682
0.102852
0.103029
0.103212
0.103403
0.103601
0.103806
0.104018
0.104238
0.104465
0.104701
0.104944
0.105196
0.105455
0.105723
0.105999
0.106284
0.106578
0.10688
0.107191
0.10751
0.107839
0.108176
0.108523
0.108878
0.109242
0.109615
0.109997
0.110388
0.110787
0.111194
0.11161
0.112034
0.112466
0.112905
0.113352
0.113806
0.114267
0.114735
0.115209
0.115688
0.116174
0.116664
0.117159
0.117658
0.118161
0.118667
0.119176
0.119687
0.1202
0.120714
0.121228
0.121743
0.122257
0.12277
0.123281
0.12379
0.124296
0.124799
0.125298
0.125792
0.126282
0.126765
0.127243
0.127715
0.128179
0.128636
0.129085
0.129526
0.129958
0.130381
0.130795
0.1312
0.131594
0.131979
0.132353
0.132717
0.13307
0.133413
0.133745
0.134065
0.134375
0.134674
0.134962
0.135239
0.135504
0.135759
0.136003
0.136236
0.136458
0.13667
0.136871
0.137062
0.137243
0.137413
0.137574
0.137724
0.137866
0.137997
0.13812
0.138233
0.138338
0.138434
0.138522
0.138601
0.138672
0.138736
0.138791
0.13884
0.138881
0.138915
0.138942
0.138963
0.138977
0.138986
0.138988
0.138984
0.138975
0.13896
0.13894
0.138915
0.138886
0.138851
0.138812
0.138769
0.138722
0.13867
0.138615
0.138557
0.138494
0.138429
0.13836
0.138288
0.138214
0.138136
0.138056
0.137974
0.137889
0.137802
0.137713
0.137622
0.137529
0.137434
0.137338
0.13724
0.137141
0.13704
0.136938
0.136835
0.136731
0.136626
0.136521
0.136414
0.136307
0.136199
0.136091
0.135982
0.135873
0.135763
0.135654
0.135544
0.135433
0.135323
0.135213
0.135103
0.134992
0.134882
0.134773
0.134663
0.134553
0.134444
0.134336
0.134227
0.134119
0.134011
0.133904
0.133798
0.133691
0.133586
0.133481
0.133376
0.133272
0.133169
0.133066
0.132964
0.132863
0.132763
0.132663
0.132564
0.132465
0.132368
0.132271
0.132175
0.13208
0.131985
0.131891
0.131799
0.131706
0.131615
0.131525
0.131435
0.131346
0.131258
0.131171
0.131085
0.130999
0.130915
0.130831
0.130748
0.130665
0.130584
0.130504
0.130424
0.130345
0.130267
0.130189
0.130113
0.130037
0.129962
0.129888
0.129815
0.129742
0.12967
0.129599
0.129529
0.129459
0.12939
0.129322
0.129255
0.129189
0.129123
0.129058
0.128993
0.128929
0.128866
0.128804
0.128743
0.128682
0.128621
0.128562
0.128503
0.128444
0.128387
0.12833
0.128273
0.128218
0.128163
0.128108
0.128054
0.128001
0.127948
0.127896
0.127844
0.127794
0.127743
0.127693
0.127644
0.127595
0.127547
0.127499
0.127452
0.127406
0.12736
0.127314
0.127269
0.127225
0.127181
0.127137
0.127094
0.127051
0.127009
0.126968
0.126927
0.126886
0.126846
0.126806
0.126767
0.126728
0.12669
0.126652
0.126615
0.126578
0.126541
0.126505
0.12647
0.126434
0.1264
0.126365
0.126331
0.126298
0.126265
0.126232
0.1262
0.126169
0.126137
0.126106
0.126076
0.126046
0.126017
0.125987
0.125959
0.125931
0.125903
0.125875
0.125849
0.125822
0.125796
0.125771
0.125745
0.125721
0.125697
0.125673
0.12565
0.125627
0.125605
0.125583
0.125562
0.125541
0.125521
0.125501
0.125482
0.125463
0.125445
0.125427
0.12541
0.125393
0.125377
0.125362
0.125347
0.125332
0.125318
0.125305
0.125292
0.12528
0.125269
0.125258
0.125248
0.125238
0.125229
0.12522
0.125212
0.125204
0.125198
0.125191
0.125185
0.12518
0.125175
0.125171
0.125168
0.125164
0.125162
0.125159
0.125157
0.125156
0.125155
0.125154
0.125153
0.125153
0.125152
0.125152
0.125152
0.125152
0.125151
0.125151
0.1
0.100002
0.100007
0.100016
0.100029
0.100046
0.100067
0.100091
0.100119
0.100151
0.100187
0.100226
0.10027
0.100317
0.100369
0.100424
0.100483
0.100547
0.100615
0.100687
0.100763
0.100844
0.10093
0.10102
0.101115
0.101215
0.101321
0.101431
0.101547
0.101668
0.101795
0.101928
0.102067
0.102211
0.102362
0.102519
0.102683
0.102853
0.10303
0.103214
0.103404
0.103602
0.103807
0.10402
0.10424
0.104467
0.104703
0.104946
0.105197
0.105457
0.105725
0.106001
0.106286
0.10658
0.106882
0.107193
0.107512
0.107841
0.108178
0.108525
0.10888
0.109244
0.109617
0.109999
0.110389
0.110788
0.111196
0.111611
0.112035
0.112467
0.112906
0.113353
0.113807
0.114268
0.114735
0.115209
0.115688
0.116173
0.116663
0.117158
0.117657
0.118159
0.118665
0.119174
0.119685
0.120197
0.120711
0.121225
0.12174
0.122253
0.122766
0.123277
0.123786
0.124292
0.124794
0.125293
0.125787
0.126276
0.12676
0.127237
0.127708
0.128173
0.128629
0.129078
0.129519
0.129951
0.130374
0.130788
0.131192
0.131587
0.131971
0.132346
0.13271
0.133063
0.133405
0.133737
0.134058
0.134368
0.134666
0.134954
0.135231
0.135497
0.135752
0.135996
0.136229
0.136451
0.136663
0.136864
0.137055
0.137236
0.137406
0.137567
0.137718
0.137859
0.137991
0.138114
0.138227
0.138332
0.138428
0.138516
0.138595
0.138666
0.13873
0.138786
0.138834
0.138876
0.13891
0.138937
0.138958
0.138972
0.138981
0.138983
0.138979
0.13897
0.138956
0.138936
0.138911
0.138881
0.138847
0.138808
0.138765
0.138718
0.138667
0.138612
0.138553
0.138491
0.138425
0.138357
0.138285
0.13821
0.138133
0.138053
0.137971
0.137886
0.137799
0.13771
0.137619
0.137526
0.137431
0.137335
0.137237
0.137138
0.137038
0.136936
0.136833
0.136729
0.136624
0.136519
0.136412
0.136305
0.136197
0.136089
0.13598
0.135871
0.135761
0.135652
0.135542
0.135432
0.135321
0.135211
0.135101
0.134991
0.134881
0.134771
0.134661
0.134552
0.134443
0.134334
0.134226
0.134118
0.13401
0.133903
0.133796
0.13369
0.133584
0.133479
0.133375
0.133271
0.133168
0.133065
0.132963
0.132862
0.132761
0.132662
0.132563
0.132464
0.132367
0.13227
0.132174
0.132078
0.131984
0.13189
0.131797
0.131705
0.131614
0.131524
0.131434
0.131345
0.131257
0.13117
0.131084
0.130998
0.130914
0.13083
0.130747
0.130665
0.130583
0.130503
0.130423
0.130344
0.130266
0.130189
0.130112
0.130036
0.129961
0.129887
0.129814
0.129741
0.129669
0.129598
0.129528
0.129459
0.12939
0.129322
0.129255
0.129188
0.129122
0.129057
0.128993
0.128929
0.128866
0.128804
0.128742
0.128681
0.128621
0.128561
0.128502
0.128444
0.128387
0.12833
0.128273
0.128218
0.128162
0.128108
0.128054
0.128001
0.127948
0.127896
0.127844
0.127794
0.127743
0.127693
0.127644
0.127595
0.127547
0.1275
0.127452
0.127406
0.12736
0.127314
0.127269
0.127225
0.127181
0.127137
0.127094
0.127052
0.12701
0.126968
0.126927
0.126887
0.126847
0.126807
0.126768
0.126729
0.126691
0.126653
0.126616
0.126579
0.126542
0.126506
0.12647
0.126435
0.126401
0.126366
0.126333
0.126299
0.126266
0.126234
0.126201
0.12617
0.126139
0.126108
0.126077
0.126047
0.126018
0.125989
0.12596
0.125932
0.125904
0.125877
0.12585
0.125824
0.125798
0.125772
0.125747
0.125723
0.125699
0.125675
0.125652
0.125629
0.125607
0.125585
0.125564
0.125543
0.125523
0.125503
0.125484
0.125465
0.125447
0.125429
0.125412
0.125396
0.12538
0.125364
0.125349
0.125335
0.125321
0.125308
0.125295
0.125283
0.125272
0.125261
0.125251
0.125241
0.125232
0.125223
0.125215
0.125208
0.125201
0.125194
0.125189
0.125184
0.125179
0.125175
0.125171
0.125168
0.125165
0.125163
0.125161
0.12516
0.125158
0.125157
0.125157
0.125156
0.125156
0.125156
0.125156
0.125155
0.125155
0.125155
0.1
0.100002
0.100007
0.100016
0.100029
0.100046
0.100067
0.100091
0.100119
0.100151
0.100187
0.100226
0.10027
0.100317
0.100368
0.100424
0.100483
0.100547
0.100614
0.100686
0.100763
0.100844
0.100929
0.101019
0.101115
0.101215
0.10132
0.10143
0.101546
0.101667
0.101794
0.101927
0.102066
0.10221
0.102361
0.102518
0.102682
0.102852
0.103029
0.103212
0.103403
0.103601
0.103806
0.104018
0.104238
0.104465
0.104701
0.104944
0.105196
0.105455
0.105723
0.105999
0.106284
0.106578
0.10688
0.107191
0.10751
0.107839
0.108176
0.108523
0.108878
0.109242
0.109615
0.109997
0.110388
0.110787
0.111194
0.11161
0.112034
0.112466
0.112905
0.113352
0.113806
0.114267
0.114735
0.115209
0.115688
0.116174
0.116664
0.117159
0.117658
0.118161
0.118667
0.119176
0.119687
0.1202
0.120714
0.121228
0.121743
0.122257
0.12277
0.123281
0.12379
0.124296
0.124799
0.125298
0.125792
0.126282
0.126765
0.127243
0.127715
0.128179
0.128636
0.129085
0.129526
0.129958
0.130381
0.130795
0.1312
0.131594
0.131979
0.132353
0.132717
0.13307
0.133413
0.133745
0.134065
0.134375
0.134674
0.134962
0.135239
0.135504
0.135759
0.136003
0.136236
0.136458
0.13667
0.136871
0.137062
0.137243
0.137413
0.137574
0.137724
0.137866
0.137997
0.13812
0.138233
0.138338
0.138434
0.138522
0.138601
0.138672
0.138736
0.138791
0.13884
0.138881
0.138915
0.138942
0.138963
0.138977
0.138986
0.138988
0.138984
0.138975
0.13896
0.13894
0.138915
0.138886
0.138851
0.138812
0.138769
0.138722
0.13867
0.138615
0.138556
0.138494
0.138429
0.13836
0.138288
0.138214
0.138136
0.138056
0.137974
0.137889
0.137802
0.137713
0.137622
0.137529
0.137434
0.137338
0.13724
0.137141
0.13704
0.136938
0.136835
0.136731
0.136626
0.136521
0.136414
0.136307
0.136199
0.136091
0.135982
0.135873
0.135763
0.135653
0.135543
0.135433
0.135323
0.135213
0.135103
0.134992
0.134882
0.134773
0.134663
0.134553
0.134444
0.134336
0.134227
0.134119
0.134011
0.133904
0.133798
0.133691
0.133586
0.133481
0.133376
0.133272
0.133169
0.133066
0.132964
0.132863
0.132763
0.132663
0.132564
0.132465
0.132368
0.132271
0.132175
0.13208
0.131985
0.131891
0.131799
0.131706
0.131615
0.131525
0.131435
0.131346
0.131258
0.131171
0.131085
0.130999
0.130915
0.130831
0.130748
0.130665
0.130584
0.130504
0.130424
0.130345
0.130267
0.130189
0.130113
0.130037
0.129962
0.129888
0.129815
0.129742
0.12967
0.129599
0.129529
0.129459
0.12939
0.129322
0.129255
0.129189
0.129123
0.129058
0.128993
0.128929
0.128866
0.128804
0.128743
0.128682
0.128621
0.128562
0.128503
0.128445
0.128387
0.12833
0.128273
0.128218
0.128163
0.128108
0.128054
0.128001
0.127948
0.127896
0.127844
0.127794
0.127743
0.127693
0.127644
0.127595
0.127547
0.127499
0.127452
0.127406
0.12736
0.127314
0.127269
0.127225
0.12718
0.127137
0.127094
0.127051
0.127009
0.126968
0.126927
0.126886
0.126846
0.126806
0.126767
0.126728
0.12669
0.126652
0.126615
0.126578
0.126541
0.126505
0.12647
0.126434
0.1264
0.126365
0.126331
0.126298
0.126265
0.126232
0.1262
0.126169
0.126137
0.126106
0.126076
0.126046
0.126017
0.125987
0.125959
0.125931
0.125903
0.125875
0.125849
0.125822
0.125796
0.125771
0.125745
0.125721
0.125697
0.125673
0.12565
0.125627
0.125605
0.125583
0.125562
0.125541
0.125521
0.125501
0.125482
0.125463
0.125445
0.125427
0.12541
0.125393
0.125377
0.125362
0.125347
0.125332
0.125318
0.125305
0.125292
0.12528
0.125269
0.125258
0.125248
0.125238
0.125229
0.12522
0.125212
0.125204
0.125198
0.125191
0.125185
0.12518
0.125175
0.125171
0.125168
0.125164
0.125162
0.125159
0.125157
0.125156
0.125155
0.125154
0.125153
0.125153
0.125152
0.125152
0.125152
0.125152
0.125151
0.125151
0.1
0.100002
0.100007
0.100016
0.100029
0.100046
0.100066
0.100091
0.100119
0.100151
0.100186
0.100226
0.100269
0.100316
0.100368
0.100423
0.100482
0.100546
0.100613
0.100685
0.100761
0.100842
0.100928
0.101018
0.101113
0.101213
0.101318
0.101428
0.101544
0.101665
0.101792
0.101924
0.102062
0.102207
0.102358
0.102514
0.102678
0.102848
0.103024
0.103208
0.103398
0.103596
0.103801
0.104013
0.104233
0.10446
0.104695
0.104939
0.10519
0.105449
0.105717
0.105993
0.106278
0.106572
0.106874
0.107185
0.107504
0.107833
0.108171
0.108517
0.108873
0.109237
0.10961
0.109992
0.110383
0.110782
0.11119
0.111606
0.11203
0.112463
0.112902
0.11335
0.113805
0.114266
0.114734
0.115209
0.115689
0.116175
0.116666
0.117162
0.117661
0.118165
0.118672
0.119182
0.119694
0.120207
0.120722
0.121237
0.121753
0.122267
0.122781
0.123293
0.123803
0.12431
0.124813
0.125313
0.125808
0.126298
0.126783
0.127261
0.127733
0.128198
0.128655
0.129105
0.129546
0.129979
0.130402
0.130817
0.131221
0.131616
0.132001
0.132376
0.13274
0.133093
0.133436
0.133767
0.134088
0.134398
0.134697
0.134984
0.135261
0.135527
0.135781
0.136025
0.136258
0.13648
0.136691
0.136892
0.137083
0.137263
0.137433
0.137594
0.137744
0.137885
0.138017
0.138139
0.138252
0.138356
0.138452
0.138539
0.138618
0.138689
0.138752
0.138808
0.138856
0.138897
0.13893
0.138958
0.138978
0.138992
0.139
0.139002
0.138998
0.138988
0.138973
0.138953
0.138928
0.138898
0.138863
0.138824
0.138781
0.138733
0.138681
0.138626
0.138567
0.138505
0.138439
0.13837
0.138298
0.138223
0.138146
0.138065
0.137983
0.137898
0.13781
0.137721
0.13763
0.137537
0.137442
0.137345
0.137247
0.137148
0.137047
0.136945
0.136842
0.136738
0.136633
0.136527
0.136421
0.136313
0.136205
0.136097
0.135988
0.135879
0.135769
0.135659
0.135549
0.135439
0.135329
0.135218
0.135108
0.134998
0.134887
0.134777
0.134668
0.134558
0.134449
0.13434
0.134232
0.134123
0.134016
0.133909
0.133802
0.133696
0.13359
0.133485
0.13338
0.133276
0.133173
0.13307
0.132968
0.132867
0.132766
0.132667
0.132567
0.132469
0.132371
0.132274
0.132178
0.132083
0.131988
0.131895
0.131802
0.13171
0.131618
0.131528
0.131438
0.131349
0.131261
0.131174
0.131088
0.131002
0.130917
0.130833
0.13075
0.130668
0.130587
0.130506
0.130426
0.130347
0.130269
0.130192
0.130115
0.130039
0.129964
0.12989
0.129817
0.129744
0.129672
0.129601
0.129531
0.129461
0.129392
0.129324
0.129257
0.12919
0.129124
0.129059
0.128995
0.128931
0.128868
0.128805
0.128744
0.128683
0.128622
0.128563
0.128504
0.128445
0.128388
0.128331
0.128274
0.128218
0.128163
0.128109
0.128055
0.128001
0.127948
0.127896
0.127845
0.127793
0.127743
0.127693
0.127644
0.127595
0.127547
0.127499
0.127452
0.127405
0.127359
0.127313
0.127268
0.127224
0.127179
0.127136
0.127093
0.12705
0.127008
0.126966
0.126925
0.126884
0.126844
0.126804
0.126765
0.126726
0.126688
0.12665
0.126612
0.126575
0.126539
0.126502
0.126467
0.126431
0.126397
0.126362
0.126328
0.126295
0.126262
0.126229
0.126197
0.126165
0.126133
0.126102
0.126072
0.126042
0.126012
0.125983
0.125954
0.125926
0.125898
0.12587
0.125843
0.125817
0.125791
0.125765
0.12574
0.125715
0.125691
0.125667
0.125644
0.125621
0.125598
0.125577
0.125555
0.125534
0.125514
0.125494
0.125475
0.125456
0.125437
0.12542
0.125402
0.125386
0.125369
0.125354
0.125339
0.125324
0.12531
0.125297
0.125284
0.125272
0.12526
0.125249
0.125238
0.125228
0.125219
0.12521
0.125202
0.125195
0.125188
0.125181
0.125175
0.12517
0.125165
0.125161
0.125157
0.125154
0.125151
0.125149
0.125147
0.125145
0.125144
0.125143
0.125142
0.125142
0.125141
0.125141
0.125141
0.12514
0.12514
0.12514
0.1
0.100002
0.100007
0.100016
0.100029
0.100046
0.100066
0.10009
0.100118
0.10015
0.100186
0.100225
0.100268
0.100316
0.100367
0.100422
0.100481
0.100544
0.100611
0.100683
0.100759
0.10084
0.100925
0.101015
0.10111
0.101209
0.101314
0.101424
0.101539
0.10166
0.101787
0.101919
0.102057
0.102201
0.102352
0.102508
0.102671
0.102841
0.103017
0.1032
0.103391
0.103588
0.103792
0.104004
0.104224
0.104451
0.104686
0.104929
0.10518
0.10544
0.105707
0.105983
0.106268
0.106561
0.106864
0.107175
0.107494
0.107823
0.108161
0.108507
0.108863
0.109228
0.109601
0.109984
0.110375
0.110775
0.111183
0.1116
0.112024
0.112457
0.112898
0.113346
0.113802
0.114264
0.114733
0.115209
0.11569
0.116177
0.116669
0.117166
0.117667
0.118172
0.11868
0.119191
0.119704
0.120219
0.120735
0.121252
0.121769
0.122285
0.1228
0.123314
0.123825
0.124333
0.124838
0.125338
0.125835
0.126326
0.126811
0.127291
0.127764
0.128229
0.128688
0.129138
0.12958
0.130013
0.130437
0.130852
0.131258
0.131653
0.132038
0.132413
0.132777
0.133131
0.133473
0.133805
0.134126
0.134436
0.134734
0.135022
0.135298
0.135564
0.135818
0.136062
0.136294
0.136516
0.136727
0.136928
0.137118
0.137298
0.137467
0.137627
0.137777
0.137918
0.138049
0.13817
0.138283
0.138387
0.138482
0.138569
0.138647
0.138718
0.13878
0.138835
0.138883
0.138923
0.138956
0.138983
0.139003
0.139016
0.139024
0.139025
0.139021
0.139011
0.138995
0.138975
0.138949
0.138919
0.138883
0.138844
0.1388
0.138752
0.1387
0.138644
0.138585
0.138522
0.138456
0.138387
0.138314
0.138239
0.138161
0.138081
0.137998
0.137912
0.137825
0.137735
0.137644
0.13755
0.137455
0.137358
0.13726
0.13716
0.137059
0.136957
0.136854
0.13675
0.136644
0.136538
0.136431
0.136324
0.136216
0.136107
0.135998
0.135888
0.135779
0.135669
0.135558
0.135448
0.135337
0.135227
0.135116
0.135006
0.134896
0.134786
0.134676
0.134566
0.134457
0.134348
0.134239
0.134131
0.134023
0.133916
0.133809
0.133702
0.133597
0.133491
0.133387
0.133283
0.133179
0.133077
0.132975
0.132873
0.132772
0.132672
0.132573
0.132475
0.132377
0.13228
0.132184
0.132088
0.131994
0.1319
0.131807
0.131715
0.131623
0.131533
0.131443
0.131354
0.131266
0.131179
0.131092
0.131007
0.130922
0.130838
0.130755
0.130672
0.130591
0.13051
0.13043
0.130351
0.130273
0.130195
0.130119
0.130043
0.129968
0.129893
0.12982
0.129747
0.129675
0.129604
0.129534
0.129464
0.129395
0.129327
0.129259
0.129193
0.129127
0.129061
0.128997
0.128933
0.12887
0.128807
0.128745
0.128684
0.128624
0.128564
0.128505
0.128447
0.128389
0.128332
0.128275
0.128219
0.128164
0.128109
0.128055
0.128001
0.127949
0.127896
0.127844
0.127793
0.127743
0.127693
0.127643
0.127594
0.127546
0.127498
0.127451
0.127404
0.127357
0.127312
0.127266
0.127222
0.127177
0.127134
0.12709
0.127048
0.127005
0.126963
0.126922
0.126881
0.126841
0.126801
0.126761
0.126722
0.126684
0.126646
0.126608
0.126571
0.126534
0.126498
0.126462
0.126426
0.126391
0.126357
0.126323
0.126289
0.126256
0.126223
0.12619
0.126158
0.126127
0.126096
0.126065
0.126035
0.126005
0.125975
0.125946
0.125918
0.12589
0.125862
0.125835
0.125808
0.125782
0.125756
0.12573
0.125705
0.125681
0.125657
0.125633
0.12561
0.125588
0.125566
0.125544
0.125523
0.125502
0.125482
0.125463
0.125444
0.125425
0.125407
0.125389
0.125372
0.125356
0.12534
0.125325
0.12531
0.125296
0.125282
0.125269
0.125257
0.125245
0.125234
0.125223
0.125213
0.125203
0.125194
0.125186
0.125178
0.125171
0.125164
0.125158
0.125153
0.125148
0.125143
0.125139
0.125136
0.125133
0.12513
0.125128
0.125127
0.125125
0.125124
0.125123
0.125123
0.125122
0.125122
0.125122
0.125121
0.125121
0.125121
0.1
0.100002
0.100007
0.100016
0.100029
0.100046
0.100066
0.10009
0.100118
0.10015
0.100185
0.100224
0.100267
0.100314
0.100365
0.10042
0.100479
0.100542
0.100609
0.10068
0.100756
0.100836
0.100921
0.101011
0.101105
0.101205
0.101309
0.101419
0.101534
0.101654
0.10178
0.101912
0.10205
0.102193
0.102343
0.1025
0.102662
0.102831
0.103007
0.10319
0.10338
0.103577
0.103781
0.103993
0.104212
0.104439
0.104673
0.104916
0.105167
0.105426
0.105694
0.105969
0.106254
0.106547
0.106849
0.10716
0.10748
0.107809
0.108147
0.108494
0.10885
0.109215
0.109589
0.109972
0.110363
0.110764
0.111173
0.11159
0.112016
0.11245
0.112892
0.113341
0.113798
0.114261
0.114732
0.115209
0.115692
0.11618
0.116674
0.117172
0.117675
0.118182
0.118692
0.119205
0.11972
0.120237
0.120755
0.121273
0.121792
0.12231
0.122827
0.123342
0.123855
0.124365
0.124872
0.125374
0.125872
0.126365
0.126852
0.127333
0.127807
0.128274
0.128733
0.129185
0.129628
0.130062
0.130487
0.130903
0.131308
0.131704
0.13209
0.132465
0.13283
0.133183
0.133526
0.133858
0.134179
0.134489
0.134787
0.135075
0.135351
0.135616
0.13587
0.136113
0.136345
0.136566
0.136777
0.136977
0.137166
0.137346
0.137515
0.137674
0.137823
0.137963
0.138093
0.138214
0.138326
0.138429
0.138524
0.13861
0.138688
0.138757
0.138819
0.138873
0.13892
0.13896
0.138992
0.139018
0.139038
0.13905
0.139057
0.139058
0.139053
0.139042
0.139026
0.139005
0.138978
0.138947
0.138912
0.138871
0.138827
0.138778
0.138726
0.13867
0.13861
0.138546
0.13848
0.13841
0.138337
0.138261
0.138183
0.138102
0.138019
0.137933
0.137845
0.137755
0.137663
0.137569
0.137473
0.137376
0.137278
0.137178
0.137076
0.136974
0.13687
0.136766
0.13666
0.136554
0.136446
0.136339
0.13623
0.136121
0.136012
0.135902
0.135792
0.135682
0.135571
0.135461
0.13535
0.135239
0.135128
0.135018
0.134907
0.134797
0.134687
0.134577
0.134468
0.134358
0.13425
0.134141
0.134033
0.133926
0.133819
0.133712
0.133606
0.133501
0.133396
0.133292
0.133188
0.133085
0.132983
0.132882
0.132781
0.132681
0.132581
0.132483
0.132385
0.132288
0.132191
0.132096
0.132001
0.131907
0.131814
0.131722
0.13163
0.13154
0.13145
0.131361
0.131272
0.131185
0.131099
0.131013
0.130928
0.130844
0.13076
0.130678
0.130596
0.130516
0.130436
0.130356
0.130278
0.1302
0.130124
0.130048
0.129972
0.129898
0.129824
0.129751
0.129679
0.129608
0.129537
0.129468
0.129399
0.12933
0.129263
0.129196
0.12913
0.129064
0.129
0.128936
0.128872
0.12881
0.128748
0.128686
0.128626
0.128566
0.128507
0.128448
0.12839
0.128333
0.128276
0.12822
0.128164
0.12811
0.128055
0.128002
0.127948
0.127896
0.127844
0.127793
0.127742
0.127692
0.127642
0.127593
0.127544
0.127496
0.127449
0.127402
0.127355
0.127309
0.127264
0.127219
0.127174
0.12713
0.127087
0.127044
0.127001
0.126959
0.126918
0.126877
0.126836
0.126796
0.126756
0.126717
0.126678
0.12664
0.126602
0.126564
0.126527
0.126491
0.126455
0.126419
0.126384
0.126349
0.126314
0.12628
0.126247
0.126214
0.126181
0.126149
0.126117
0.126085
0.126054
0.126024
0.125994
0.125964
0.125935
0.125906
0.125878
0.12585
0.125822
0.125795
0.125769
0.125742
0.125717
0.125691
0.125667
0.125642
0.125619
0.125595
0.125572
0.12555
0.125528
0.125507
0.125486
0.125465
0.125445
0.125426
0.125407
0.125389
0.125371
0.125354
0.125337
0.125321
0.125305
0.12529
0.125276
0.125262
0.125248
0.125236
0.125223
0.125212
0.125201
0.12519
0.125181
0.125171
0.125163
0.125155
0.125147
0.12514
0.125134
0.125128
0.125123
0.125118
0.125114
0.12511
0.125107
0.125105
0.125102
0.1251
0.125099
0.125098
0.125097
0.125096
0.125095
0.125095
0.125095
0.125094
0.125094
0.125094
0.1
0.100002
0.100007
0.100016
0.100029
0.100045
0.100066
0.10009
0.100117
0.100149
0.100184
0.100223
0.100266
0.100312
0.100363
0.100418
0.100476
0.100539
0.100606
0.100677
0.100752
0.100832
0.100916
0.101006
0.1011
0.101198
0.101302
0.101412
0.101526
0.101646
0.101772
0.101903
0.10204
0.102183
0.102333
0.102488
0.102651
0.102819
0.102995
0.103177
0.103366
0.103563
0.103766
0.103977
0.104196
0.104423
0.104657
0.104899
0.10515
0.105409
0.105676
0.105951
0.106236
0.106529
0.106831
0.107142
0.107462
0.107791
0.108129
0.108476
0.108833
0.109198
0.109573
0.109956
0.110349
0.11075
0.11116
0.111578
0.112005
0.11244
0.112883
0.113334
0.113792
0.114258
0.11473
0.115209
0.115693
0.116184
0.11668
0.11718
0.117685
0.118194
0.118707
0.119222
0.119739
0.120259
0.120779
0.1213
0.121821
0.122342
0.122861
0.123379
0.123894
0.124406
0.124915
0.12542
0.12592
0.126415
0.126904
0.127386
0.127862
0.128331
0.128792
0.129245
0.129689
0.130124
0.130551
0.130967
0.131374
0.13177
0.132157
0.132532
0.132897
0.133251
0.133594
0.133926
0.134247
0.134557
0.134855
0.135142
0.135418
0.135683
0.135936
0.136179
0.13641
0.136631
0.136841
0.13704
0.137229
0.137407
0.137576
0.137734
0.137883
0.138021
0.138151
0.138271
0.138382
0.138484
0.138578
0.138663
0.13874
0.138808
0.138869
0.138923
0.138968
0.139007
0.139039
0.139064
0.139082
0.139094
0.1391
0.1391
0.139094
0.139082
0.139065
0.139043
0.139016
0.138984
0.138948
0.138907
0.138862
0.138812
0.138759
0.138702
0.138642
0.138578
0.13851
0.13844
0.138366
0.13829
0.138211
0.138129
0.138045
0.137959
0.13787
0.13778
0.137687
0.137593
0.137497
0.137399
0.1373
0.1372
0.137098
0.136995
0.136891
0.136786
0.13668
0.136573
0.136466
0.136357
0.136249
0.136139
0.13603
0.135919
0.135809
0.135698
0.135588
0.135477
0.135366
0.135255
0.135144
0.135033
0.134922
0.134811
0.134701
0.134591
0.134481
0.134372
0.134263
0.134154
0.134046
0.133938
0.133831
0.133724
0.133618
0.133513
0.133408
0.133303
0.1332
0.133096
0.132994
0.132892
0.132791
0.132691
0.132592
0.132493
0.132395
0.132298
0.132201
0.132105
0.132011
0.131916
0.131823
0.131731
0.131639
0.131548
0.131458
0.131369
0.131281
0.131193
0.131106
0.13102
0.130935
0.130851
0.130768
0.130685
0.130603
0.130522
0.130442
0.130363
0.130284
0.130206
0.13013
0.130053
0.129978
0.129903
0.12983
0.129757
0.129684
0.129613
0.129542
0.129472
0.129403
0.129334
0.129267
0.1292
0.129133
0.129068
0.129003
0.128939
0.128875
0.128812
0.12875
0.128689
0.128628
0.128568
0.128508
0.128449
0.128391
0.128334
0.128277
0.12822
0.128165
0.12811
0.128055
0.128001
0.127948
0.127895
0.127843
0.127791
0.12774
0.12769
0.12764
0.12759
0.127542
0.127493
0.127445
0.127398
0.127351
0.127305
0.127259
0.127214
0.127169
0.127125
0.127081
0.127038
0.126995
0.126953
0.126911
0.12687
0.126829
0.126788
0.126748
0.126709
0.12667
0.126631
0.126593
0.126555
0.126518
0.126481
0.126444
0.126408
0.126373
0.126338
0.126303
0.126269
0.126235
0.126201
0.126168
0.126136
0.126103
0.126072
0.12604
0.126009
0.125979
0.125949
0.125919
0.12589
0.125861
0.125833
0.125805
0.125778
0.125751
0.125724
0.125698
0.125673
0.125648
0.125623
0.125599
0.125575
0.125552
0.125529
0.125507
0.125485
0.125463
0.125443
0.125422
0.125403
0.125383
0.125365
0.125346
0.125329
0.125312
0.125295
0.125279
0.125264
0.125249
0.125234
0.125221
0.125208
0.125195
0.125183
0.125172
0.125161
0.125151
0.125141
0.125132
0.125124
0.125116
0.125109
0.125102
0.125096
0.12509
0.125085
0.125081
0.125077
0.125073
0.12507
0.125068
0.125066
0.125064
0.125062
0.125061
0.12506
0.12506
0.125059
0.125059
0.125058
0.125058
0.125058
0.1
0.100002
0.100007
0.100016
0.100029
0.100045
0.100065
0.100089
0.100116
0.100148
0.100183
0.100221
0.100264
0.10031
0.100361
0.100415
0.100473
0.100535
0.100602
0.100672
0.100747
0.100827
0.100911
0.100999
0.101093
0.101191
0.101294
0.101403
0.101517
0.101636
0.101761
0.101892
0.102028
0.102171
0.10232
0.102475
0.102636
0.102804
0.102979
0.103161
0.103349
0.103545
0.103748
0.103959
0.104177
0.104403
0.104637
0.104878
0.105129
0.105387
0.105654
0.105929
0.106214
0.106507
0.106809
0.10712
0.10744
0.107769
0.108107
0.108455
0.108811
0.109177
0.109553
0.109937
0.11033
0.110733
0.111144
0.111563
0.111992
0.112428
0.112873
0.113325
0.113786
0.114253
0.114727
0.115208
0.115695
0.116188
0.116687
0.11719
0.117698
0.118209
0.118725
0.119243
0.119763
0.120285
0.120809
0.121333
0.121857
0.122381
0.122903
0.123424
0.123942
0.124457
0.124968
0.125476
0.125978
0.126476
0.126967
0.127452
0.12793
0.128401
0.128864
0.129318
0.129764
0.130201
0.130628
0.131046
0.131454
0.131851
0.132238
0.132615
0.13298
0.133335
0.133678
0.13401
0.134331
0.13464
0.134938
0.135225
0.1355
0.135765
0.136018
0.136259
0.13649
0.13671
0.136919
0.137118
0.137305
0.137483
0.13765
0.137808
0.137955
0.138093
0.138221
0.13834
0.13845
0.138551
0.138643
0.138727
0.138803
0.138871
0.13893
0.138982
0.139027
0.139065
0.139095
0.139119
0.139136
0.139147
0.139152
0.139151
0.139144
0.139131
0.139113
0.13909
0.139062
0.139029
0.138992
0.13895
0.138904
0.138854
0.1388
0.138742
0.13868
0.138615
0.138547
0.138476
0.138402
0.138325
0.138245
0.138163
0.138078
0.137991
0.137902
0.13781
0.137717
0.137622
0.137526
0.137427
0.137328
0.137227
0.137124
0.137021
0.136916
0.136811
0.136704
0.136597
0.136489
0.13638
0.136271
0.136161
0.136051
0.135941
0.13583
0.135719
0.135607
0.135496
0.135385
0.135273
0.135162
0.135051
0.13494
0.134829
0.134718
0.134608
0.134498
0.134388
0.134279
0.13417
0.134061
0.133953
0.133846
0.133739
0.133633
0.133527
0.133422
0.133317
0.133213
0.13311
0.133007
0.132905
0.132804
0.132704
0.132604
0.132505
0.132407
0.132309
0.132212
0.132117
0.132021
0.131927
0.131834
0.131741
0.131649
0.131558
0.131468
0.131379
0.13129
0.131202
0.131115
0.131029
0.130944
0.13086
0.130776
0.130693
0.130611
0.13053
0.13045
0.13037
0.130291
0.130213
0.130136
0.13006
0.129984
0.129909
0.129835
0.129762
0.12969
0.129618
0.129547
0.129477
0.129407
0.129339
0.129271
0.129203
0.129137
0.129071
0.129006
0.128941
0.128878
0.128815
0.128752
0.12869
0.128629
0.128569
0.128509
0.12845
0.128392
0.128334
0.128277
0.12822
0.128164
0.128109
0.128054
0.128
0.127946
0.127893
0.127841
0.127789
0.127737
0.127687
0.127636
0.127587
0.127537
0.127489
0.127441
0.127393
0.127346
0.127299
0.127253
0.127208
0.127163
0.127118
0.127074
0.12703
0.126987
0.126944
0.126902
0.126861
0.126819
0.126778
0.126738
0.126698
0.126659
0.12662
0.126581
0.126543
0.126505
0.126468
0.126431
0.126395
0.126359
0.126323
0.126288
0.126253
0.126219
0.126185
0.126151
0.126118
0.126086
0.126054
0.126022
0.125991
0.12596
0.125929
0.125899
0.12587
0.12584
0.125812
0.125783
0.125755
0.125728
0.125701
0.125675
0.125648
0.125623
0.125598
0.125573
0.125549
0.125525
0.125502
0.125479
0.125457
0.125435
0.125414
0.125393
0.125373
0.125353
0.125334
0.125315
0.125297
0.125279
0.125262
0.125246
0.12523
0.125214
0.1252
0.125185
0.125172
0.125159
0.125146
0.125135
0.125123
0.125113
0.125103
0.125093
0.125084
0.125076
0.125068
0.125061
0.125055
0.125049
0.125044
0.125039
0.125034
0.125031
0.125027
0.125024
0.125022
0.12502
0.125018
0.125017
0.125016
0.125015
0.125014
0.125014
0.125013
0.125013
0.125013
0.1
0.100002
0.100007
0.100016
0.100029
0.100045
0.100065
0.100088
0.100116
0.100147
0.100181
0.10022
0.100262
0.100308
0.100358
0.100412
0.100469
0.100531
0.100597
0.100667
0.100742
0.10082
0.100904
0.100992
0.101085
0.101182
0.101285
0.101393
0.101506
0.101625
0.101749
0.101879
0.102015
0.102156
0.102304
0.102459
0.102619
0.102786
0.10296
0.103141
0.103329
0.103524
0.103726
0.103936
0.104154
0.104379
0.104612
0.104854
0.105103
0.105361
0.105628
0.105903
0.106187
0.10648
0.106782
0.107093
0.107413
0.107742
0.108081
0.108429
0.108786
0.109153
0.109529
0.109914
0.110308
0.110712
0.111124
0.111545
0.111975
0.112414
0.11286
0.113315
0.113777
0.114247
0.114724
0.115207
0.115697
0.116193
0.116695
0.117201
0.117712
0.118227
0.118746
0.119267
0.119791
0.120317
0.120844
0.121372
0.121899
0.122427
0.122953
0.123477
0.123998
0.124517
0.125032
0.125542
0.126048
0.126548
0.127042
0.12753
0.128011
0.128484
0.128949
0.129405
0.129853
0.130292
0.130721
0.13114
0.131549
0.131947
0.132335
0.132712
0.133078
0.133433
0.133777
0.134109
0.134429
0.134739
0.135037
0.135323
0.135598
0.135861
0.136114
0.136355
0.136585
0.136804
0.137012
0.137209
0.137396
0.137572
0.137738
0.137894
0.13804
0.138177
0.138304
0.138422
0.13853
0.13863
0.138721
0.138803
0.138878
0.138944
0.139002
0.139053
0.139097
0.139133
0.139162
0.139185
0.1392
0.13921
0.139214
0.139211
0.139203
0.139189
0.13917
0.139146
0.139117
0.139083