# vtk DataFile Version 3.0
LBM Fluid Grid
ASCII
DATASET STRUCTURED_POINTS
DIMENSIONS 400 150 1
ORIGIN 0 0 0
SPACING 1 1 1
POINT_DATA 60000
SCALARS VelocityMagnitude double 1
LOOKUP_TABLE default
0.1
0.100006
0.100012
0.100019
0.100026
0.100034
0.100044
0.100057
0.100073
0.100093
0.100118
0.100149
0.100185
0.100227
0.100276
0.100331
0.100393
0.100461
0.100535
0.100615
0.1007
0.100791
0.100886
0.100986
0.10109
0.101199
0.101311
0.101426
0.101546
0.10167
0.101798
0.10193
0.102067
0.102209
0.102357
0.10251
0.10267
0.102837
0.10301
0.103192
0.103381
0.103577
0.103783
0.103996
0.104218
0.104448
0.104687
0.104934
0.10519
0.105454
0.105727
0.106007
0.106296
0.106593
0.106898
0.107211
0.107532
0.107862
0.108199
0.108545
0.108899
0.109262
0.109633
0.110012
0.1104
0.110797
0.111202
0.111615
0.112037
0.112467
0.112905
0.113351
0.113804
0.114265
0.114733
0.115207
0.115688
0.116174
0.116665
0.117161
0.117661
0.118165
0.118672
0.119181
0.119692
0.120205
0.120718
0.121232
0.121745
0.122258
0.122769
0.123278
0.123785
0.124289
0.124789
0.125286
0.125777
0.126264
0.126746
0.127221
0.127691
0.128153
0.128609
0.129057
0.129497
0.129928
0.130351
0.130765
0.13117
0.131565
0.13195
0.132325
0.13269
0.133044
0.133387
0.13372
0.134041
0.134352
0.134651
0.134939
0.135216
0.135482
0.135737
0.135981
0.136213
0.136435
0.136646
0.136847
0.137037
0.137217
0.137387
0.137546
0.137697
0.137837
0.137968
0.138091
0.138204
0.138308
0.138404
0.138492
0.138572
0.138644
0.138708
0.138765
0.138814
0.138856
0.138891
0.13892
0.138942
0.138958
0.138967
0.13897
0.138968
0.13896
0.138946
0.138927
0.138903
0.138874
0.13884
0.138802
0.138759
0.138712
0.13866
0.138605
0.138546
0.138484
0.138418
0.138349
0.138277
0.138202
0.138124
0.138044
0.137961
0.137876
0.137789
0.1377
0.137608
0.137516
0.137421
0.137325
0.137227
0.137128
0.137028
0.136926
0.136823
0.13672
0.136615
0.136509
0.136403
0.136296
0.136188
0.136079
0.13597
0.135861
0.135751
0.135641
0.13553
0.135419
0.135308
0.135197
0.135086
0.134975
0.134864
0.134753
0.134642
0.134532
0.134422
0.134312
0.134202
0.134093
0.133985
0.133877
0.133769
0.133662
0.133556
0.13345
0.133345
0.13324
0.133136
0.133033
0.13293
0.132829
0.132727
0.132627
0.132527
0.132428
0.13233
0.132233
0.132136
0.13204
0.131945
0.13185
0.131757
0.131664
0.131572
0.131481
0.13139
0.131301
0.131212
0.131124
0.131037
0.130951
0.130865
0.130781
0.130697
0.130615
0.130533
0.130452
0.130372
0.130293
0.130215
0.130137
0.130061
0.129985
0.12991
0.129836
0.129763
0.12969
0.129618
0.129548
0.129478
0.129408
0.12934
0.129272
0.129205
0.129139
0.129073
0.129008
0.128944
0.128881
0.128818
0.128756
0.128695
0.128635
0.128575
0.128516
0.128457
0.1284
0.128343
0.128286
0.128231
0.128176
0.128121
0.128068
0.128015
0.127962
0.12791
0.127859
0.127808
0.127758
0.127709
0.12766
0.127612
0.127564
0.127516
0.12747
0.127424
0.127378
0.127333
0.127288
0.127244
0.1272
0.127157
0.127114
0.127072
0.12703
0.126989
0.126948
0.126908
0.126868
0.126828
0.126789
0.126751
0.126713
0.126675
0.126638
0.126601
0.126565
0.126529
0.126493
0.126458
0.126424
0.126389
0.126355
0.126322
0.126289
0.126256
0.126224
0.126192
0.126161
0.12613
0.126099
0.126069
0.126039
0.12601
0.125981
0.125952
0.125924
0.125897
0.125869
0.125842
0.125816
0.12579
0.125764
0.125739
0.125714
0.12569
0.125666
0.125643
0.12562
0.125598
0.125576
0.125554
0.125533
0.125513
0.125493
0.125473
0.125454
0.125436
0.125418
0.1254
0.125383
0.125367
0.125351
0.125335
0.125321
0.125306
0.125293
0.12528
0.125267
0.125255
0.125244
0.125233
0.125223
0.125213
0.125204
0.125195
0.125187
0.12518
0.125173
0.125167
0.125161
0.125156
0.125151
0.125147
0.125143
0.12514
0.125137
0.125135
0.125133
0.125131
0.12513
0.125129
0.125128
0.125127
0.125126
0.125126
0.125125
0.125124
0.125124
0.1
0.100006
0.100012
0.100019
0.100026
0.100034
0.100044
0.100057
0.100073
0.100093
0.100118
0.100149
0.100185
0.100227
0.100276
0.100331
0.100393
0.100461
0.100535
0.100615
0.100701
0.100791
0.100887
0.100987
0.101091
0.101199
0.101311
0.101427
0.101547
0.101671
0.101799
0.101931
0.102068
0.10221
0.102358
0.102511
0.102671
0.102838
0.103012
0.103193
0.103382
0.103579
0.103784
0.103998
0.10422
0.10445
0.104689
0.104936
0.105192
0.105456
0.105728
0.106009
0.106298
0.106595
0.1069
0.107213
0.107534
0.107864
0.108201
0.108547
0.108901
0.109264
0.109635
0.110014
0.110402
0.110798
0.111203
0.111616
0.112038
0.112468
0.112906
0.113352
0.113805
0.114266
0.114733
0.115207
0.115687
0.116173
0.116664
0.11716
0.11766
0.118163
0.11867
0.119179
0.11969
0.120202
0.120716
0.121229
0.121742
0.122255
0.122765
0.123274
0.123781
0.124284
0.124784
0.125281
0.125772
0.126259
0.12674
0.127216
0.127685
0.128147
0.128602
0.12905
0.12949
0.129921
0.130344
0.130758
0.131163
0.131558
0.131943
0.132318
0.132682
0.133036
0.13338
0.133712
0.134034
0.134344
0.134644
0.134932
0.135209
0.135475
0.13573
0.135973
0.136206
0.136428
0.136639
0.13684
0.13703
0.13721
0.13738
0.13754
0.13769
0.137831
0.137962
0.138084
0.138198
0.138302
0.138398
0.138486
0.138566
0.138638
0.138702
0.138759
0.138809
0.138851
0.138886
0.138915
0.138937
0.138953
0.138962
0.138966
0.138963
0.138955
0.138942
0.138923
0.138899
0.13887
0.138836
0.138798
0.138755
0.138708
0.138657
0.138601
0.138543
0.13848
0.138415
0.138346
0.138274
0.138199
0.138121
0.138041
0.137958
0.137873
0.137786
0.137697
0.137606
0.137513
0.137418
0.137322
0.137224
0.137125
0.137025
0.136924
0.136821
0.136717
0.136613
0.136507
0.136401
0.136293
0.136186
0.136077
0.135968
0.135859
0.135749
0.135639
0.135528
0.135417
0.135306
0.135195
0.135084
0.134973
0.134862
0.134751
0.134641
0.13453
0.13442
0.13431
0.134201
0.134092
0.133983
0.133875
0.133768
0.133661
0.133554
0.133448
0.133343
0.133239
0.133135
0.133032
0.132929
0.132827
0.132726
0.132626
0.132526
0.132427
0.132329
0.132232
0.132135
0.132039
0.131944
0.131849
0.131756
0.131663
0.131571
0.13148
0.131389
0.1313
0.131211
0.131123
0.131036
0.13095
0.130864
0.13078
0.130697
0.130614
0.130532
0.130451
0.130371
0.130292
0.130214
0.130136
0.13006
0.129984
0.129909
0.129835
0.129762
0.129689
0.129618
0.129547
0.129477
0.129408
0.129339
0.129271
0.129204
0.129138
0.129073
0.129008
0.128944
0.12888
0.128818
0.128756
0.128695
0.128634
0.128575
0.128516
0.128457
0.128399
0.128342
0.128286
0.12823
0.128175
0.128121
0.128067
0.128014
0.127962
0.12791
0.127859
0.127808
0.127758
0.127709
0.12766
0.127612
0.127564
0.127517
0.12747
0.127424
0.127378
0.127333
0.127288
0.127244
0.1272
0.127157
0.127115
0.127072
0.127031
0.126989
0.126949
0.126908
0.126868
0.126829
0.12679
0.126752
0.126713
0.126676
0.126639
0.126602
0.126566
0.12653
0.126494
0.126459
0.126425
0.12639
0.126357
0.126323
0.12629
0.126258
0.126225
0.126194
0.126162
0.126131
0.126101
0.126071
0.126041
0.126011
0.125982
0.125954
0.125926
0.125898
0.125871
0.125844
0.125818
0.125792
0.125766
0.125741
0.125716
0.125692
0.125668
0.125645
0.125622
0.1256
0.125578
0.125556
0.125535
0.125515
0.125495
0.125475
0.125456
0.125438
0.12542
0.125403
0.125386
0.125369
0.125353
0.125338
0.125323
0.125309
0.125296
0.125282
0.12527
0.125258
0.125247
0.125236
0.125226
0.125216
0.125207
0.125198
0.125191
0.125183
0.125176
0.12517
0.125165
0.125159
0.125155
0.125151
0.125147
0.125144
0.125141
0.125139
0.125137
0.125135
0.125134
0.125132
0.125131
0.125131
0.12513
0.125129
0.125129
0.125128
0.125128
0.1
0.100006
0.100012
0.100019
0.100026
0.100034
0.100044
0.100057
0.100073
0.100093
0.100118
0.100149
0.100185
0.100227
0.100276
0.100331
0.100393
0.100461
0.100535
0.100615
0.1007
0.100791
0.100886
0.100986
0.10109
0.101199
0.101311
0.101426
0.101546
0.10167
0.101798
0.10193
0.102067
0.102209
0.102357
0.10251
0.10267
0.102837
0.10301
0.103192
0.103381
0.103577
0.103783
0.103996
0.104218
0.104448
0.104687
0.104934
0.10519
0.105454
0.105727
0.106007
0.106296
0.106593
0.106898
0.107211
0.107532
0.107862
0.108199
0.108545
0.108899
0.109262
0.109633
0.110012
0.1104
0.110797
0.111202
0.111615
0.112037
0.112467
0.112905
0.113351
0.113804
0.114265
0.114733
0.115207
0.115688
0.116174
0.116665
0.117161
0.117661
0.118165
0.118672
0.119181
0.119692
0.120205
0.120718
0.121232
0.121745
0.122258
0.122769
0.123278
0.123785
0.124289
0.124789
0.125286
0.125777
0.126264
0.126746
0.127221
0.127691
0.128153
0.128609
0.129057
0.129497
0.129928
0.130351
0.130765
0.13117
0.131565
0.13195
0.132325
0.13269
0.133044
0.133387
0.13372
0.134041
0.134352
0.134651
0.134939
0.135216
0.135482
0.135737
0.135981
0.136213
0.136435
0.136646
0.136847
0.137037
0.137217
0.137387
0.137546
0.137697
0.137837
0.137968
0.138091
0.138204
0.138308
0.138404
0.138492
0.138572
0.138644
0.138708
0.138765
0.138814
0.138856
0.138891
0.13892
0.138942
0.138958
0.138967
0.13897
0.138968
0.13896
0.138946
0.138927
0.138903
0.138874
0.13884
0.138802
0.138759
0.138712
0.13866
0.138605
0.138546
0.138484
0.138418
0.138349
0.138277
0.138202
0.138124
0.138044
0.137961
0.137876
0.137789
0.1377
0.137608
0.137516
0.137421
0.137325
0.137227
0.137128
0.137028
0.136926
0.136823
0.13672
0.136615
0.136509
0.136403
0.136296
0.136188
0.136079
0.13597
0.135861
0.135751
0.135641
0.13553
0.135419
0.135308
0.135197
0.135086
0.134975
0.134864
0.134753
0.134642
0.134532
0.134422
0.134312
0.134202
0.134093
0.133985
0.133877
0.133769
0.133662
0.133556
0.13345
0.133345
0.13324
0.133136
0.133033
0.13293
0.132829
0.132727
0.132627
0.132527
0.132428
0.13233
0.132233
0.132136
0.13204
0.131945
0.13185
0.131757
0.131664
0.131572
0.131481
0.13139
0.131301
0.131212
0.131124
0.131037
0.130951
0.130865
0.130781
0.130697
0.130615
0.130533
0.130452
0.130372
0.130293
0.130215
0.130137
0.13006
0.129985
0.12991
0.129836
0.129762
0.12969
0.129618
0.129548
0.129477
0.129408
0.12934
0.129272
0.129205
0.129139
0.129073
0.129008
0.128944
0.128881
0.128818
0.128756
0.128695
0.128635
0.128575
0.128516
0.128457
0.1284
0.128343
0.128286
0.128231
0.128176
0.128121
0.128068
0.128015
0.127962
0.12791
0.127859
0.127808
0.127758
0.127709
0.12766
0.127612
0.127564
0.127517
0.12747
0.127424
0.127378
0.127333
0.127288
0.127244
0.1272
0.127157
0.127114
0.127072
0.12703
0.126989
0.126948
0.126908
0.126868
0.126828
0.126789
0.126751
0.126713
0.126675
0.126638
0.126601
0.126565
0.126529
0.126493
0.126458
0.126424
0.126389
0.126356
0.126322
0.126289
0.126256
0.126224
0.126192
0.126161
0.12613
0.126099
0.126069
0.126039
0.12601
0.125981
0.125952
0.125924
0.125897
0.125869
0.125842
0.125816
0.12579
0.125764
0.125739
0.125714
0.12569
0.125666
0.125643
0.12562
0.125598
0.125576
0.125554
0.125533
0.125513
0.125493
0.125473
0.125454
0.125436
0.125418
0.1254
0.125383
0.125367
0.125351
0.125335
0.125321
0.125306
0.125293
0.12528
0.125267
0.125255
0.125244
0.125233
0.125223
0.125213
0.125204
0.125195
0.125187
0.12518
0.125173
0.125167
0.125161
0.125156
0.125151
0.125147
0.125143
0.12514
0.125137
0.125135
0.125133
0.125131
0.12513
0.125129
0.125128
0.125127
0.125126
0.125126
0.125125
0.125124
0.125124
0.1
0.100006
0.100012
0.100019
0.100026
0.100034
0.100044
0.100057
0.100073
0.100093
0.100118
0.100148
0.100184
0.100227
0.100275
0.10033
0.100392
0.10046
0.100534
0.100614
0.100699
0.10079
0.100885
0.100985
0.101089
0.101197
0.101308
0.101424
0.101544
0.101667
0.101795
0.101927
0.102064
0.102206
0.102353
0.102506
0.102666
0.102833
0.103006
0.103187
0.103376
0.103573
0.103778
0.103991
0.104213
0.104443
0.104682
0.104929
0.105184
0.105448
0.105721
0.106001
0.10629
0.106587
0.106892
0.107205
0.107526
0.107856
0.108193
0.108539
0.108894
0.109256
0.109627
0.110007
0.110395
0.110792
0.111197
0.111611
0.112033
0.112464
0.112902
0.113349
0.113803
0.114264
0.114732
0.115207
0.115688
0.116175
0.116667
0.117164
0.117664
0.118169
0.118676
0.119187
0.119699
0.120212
0.120726
0.121241
0.121755
0.122268
0.12278
0.12329
0.123798
0.124302
0.124804
0.125301
0.125793
0.126281
0.126763
0.127239
0.127709
0.128172
0.128628
0.129077
0.129517
0.129949
0.130372
0.130787
0.131192
0.131587
0.131972
0.132347
0.132712
0.133066
0.13341
0.133742
0.134064
0.134374
0.134674
0.134962
0.135239
0.135504
0.135759
0.136003
0.136235
0.136457
0.136668
0.136868
0.137058
0.137237
0.137407
0.137567
0.137716
0.137857
0.137988
0.13811
0.138222
0.138327
0.138423
0.13851
0.138589
0.138661
0.138725
0.138781
0.13883
0.138872
0.138907
0.138935
0.138957
0.138972
0.138981
0.138985
0.138982
0.138973
0.138959
0.13894
0.138916
0.138886
0.138852
0.138814
0.13877
0.138723
0.138672
0.138616
0.138557
0.138494
0.138428
0.138359
0.138287
0.138212
0.138134
0.138053
0.13797
0.137885
0.137798
0.137708
0.137617
0.137524
0.137429
0.137333
0.137235
0.137136
0.137035
0.136933
0.13683
0.136727
0.136622
0.136516
0.136409
0.136302
0.136194
0.136086
0.135976
0.135867
0.135757
0.135646
0.135536
0.135425
0.135314
0.135202
0.135091
0.13498
0.134869
0.134758
0.134647
0.134537
0.134426
0.134316
0.134207
0.134098
0.133989
0.133881
0.133773
0.133666
0.13356
0.133454
0.133349
0.133244
0.13314
0.133037
0.132934
0.132832
0.132731
0.132631
0.132531
0.132432
0.132334
0.132236
0.132139
0.132043
0.131948
0.131854
0.13176
0.131667
0.131575
0.131484
0.131393
0.131304
0.131215
0.131127
0.13104
0.130954
0.130868
0.130784
0.1307
0.130617
0.130536
0.130455
0.130375
0.130295
0.130217
0.130139
0.130063
0.129987
0.129912
0.129838
0.129765
0.129692
0.12962
0.12955
0.129479
0.12941
0.129341
0.129274
0.129207
0.12914
0.129075
0.12901
0.128946
0.128882
0.12882
0.128758
0.128696
0.128636
0.128576
0.128517
0.128458
0.128401
0.128344
0.128287
0.128231
0.128176
0.128122
0.128068
0.128015
0.127962
0.12791
0.127859
0.127808
0.127758
0.127709
0.12766
0.127611
0.127563
0.127516
0.127469
0.127423
0.127377
0.127332
0.127287
0.127243
0.127199
0.127156
0.127113
0.127071
0.127029
0.126988
0.126947
0.126906
0.126866
0.126827
0.126788
0.126749
0.126711
0.126673
0.126636
0.126599
0.126562
0.126526
0.126491
0.126456
0.126421
0.126386
0.126352
0.126319
0.126286
0.126253
0.126221
0.126189
0.126157
0.126126
0.126095
0.126065
0.126035
0.126006
0.125977
0.125948
0.12592
0.125892
0.125864
0.125837
0.125811
0.125785
0.125759
0.125734
0.125709
0.125684
0.12566
0.125637
0.125614
0.125591
0.125569
0.125548
0.125526
0.125506
0.125486
0.125466
0.125447
0.125428
0.12541
0.125393
0.125375
0.125359
0.125343
0.125327
0.125312
0.125298
0.125284
0.125271
0.125258
0.125246
0.125235
0.125224
0.125213
0.125204
0.125194
0.125186
0.125178
0.12517
0.125163
0.125157
0.125151
0.125146
0.125141
0.125137
0.125133
0.12513
0.125127
0.125124
0.125122
0.12512
0.125119
0.125118
0.125117
0.125116
0.125115
0.125114
0.125114
0.125113
0.125113
0.1
0.100006
0.100012
0.100019
0.100026
0.100034
0.100044
0.100057
0.100073
0.100093
0.100118
0.100148
0.100184
0.100226
0.100275
0.100329
0.100391
0.100459
0.100532
0.100612
0.100697
0.100787
0.100882
0.100982
0.101086
0.101193
0.101305
0.10142
0.10154
0.101663
0.10179
0.101922
0.102058
0.1022
0.102347
0.1025
0.10266
0.102826
0.102999
0.10318
0.103368
0.103565
0.10377
0.103983
0.104204
0.104434
0.104673
0.10492
0.105175
0.105439
0.105711
0.105991
0.10628
0.106577
0.106882
0.107195
0.107516
0.107846
0.108183
0.108529
0.108884
0.109247
0.109618
0.109998
0.110387
0.110784
0.11119
0.111604
0.112027
0.112458
0.112898
0.113345
0.1138
0.114262
0.114731
0.115207
0.115689
0.116177
0.11667
0.117168
0.11767
0.118176
0.118684
0.119196
0.119709
0.120224
0.12074
0.121255
0.121771
0.122286
0.122799
0.12331
0.123819
0.124325
0.124827
0.125326
0.125819
0.126308
0.126791
0.127269
0.12774
0.128204
0.128661
0.12911
0.129551
0.129984
0.130408
0.130822
0.131228
0.131623
0.132009
0.132385
0.13275
0.133104
0.133448
0.13378
0.134102
0.134412
0.134711
0.134999
0.135276
0.135541
0.135796
0.136039
0.136271
0.136493
0.136703
0.136903
0.137093
0.137272
0.137441
0.1376
0.137749
0.137889
0.13802
0.138141
0.138254
0.138357
0.138453
0.13854
0.138618
0.138689
0.138753
0.138809
0.138857
0.138899
0.138933
0.138961
0.138982
0.138997
0.139005
0.139008
0.139005
0.138996
0.138982
0.138962
0.138937
0.138907
0.138873
0.138834
0.13879
0.138742
0.13869
0.138634
0.138575
0.138512
0.138446
0.138376
0.138303
0.138228
0.13815
0.138069
0.137985
0.1379
0.137812
0.137722
0.137631
0.137537
0.137442
0.137346
0.137248
0.137148
0.137047
0.136945
0.136842
0.136738
0.136633
0.136527
0.13642
0.136313
0.136205
0.136096
0.135987
0.135877
0.135766
0.135656
0.135545
0.135434
0.135323
0.135211
0.1351
0.134989
0.134877
0.134766
0.134655
0.134545
0.134434
0.134324
0.134215
0.134105
0.133997
0.133888
0.133781
0.133673
0.133567
0.133461
0.133356
0.133251
0.133147
0.133043
0.132941
0.132839
0.132738
0.132637
0.132537
0.132438
0.13234
0.132242
0.132145
0.132049
0.131954
0.131859
0.131765
0.131672
0.13158
0.131489
0.131398
0.131309
0.13122
0.131132
0.131045
0.130958
0.130873
0.130788
0.130705
0.130622
0.13054
0.130459
0.130379
0.130299
0.130221
0.130143
0.130067
0.129991
0.129916
0.129841
0.129768
0.129695
0.129624
0.129553
0.129482
0.129413
0.129344
0.129276
0.129209
0.129143
0.129077
0.129012
0.128948
0.128885
0.128822
0.12876
0.128698
0.128638
0.128578
0.128518
0.12846
0.128402
0.128345
0.128288
0.128232
0.128177
0.128123
0.128069
0.128015
0.127963
0.127911
0.127859
0.127808
0.127758
0.127709
0.127659
0.127611
0.127563
0.127515
0.127468
0.127422
0.127376
0.127331
0.127286
0.127241
0.127197
0.127154
0.127111
0.127069
0.127027
0.126985
0.126944
0.126903
0.126863
0.126824
0.126784
0.126745
0.126707
0.126669
0.126632
0.126595
0.126558
0.126522
0.126486
0.126451
0.126416
0.126381
0.126347
0.126313
0.12628
0.126247
0.126215
0.126183
0.126151
0.12612
0.126089
0.126058
0.126028
0.125998
0.125969
0.12594
0.125912
0.125884
0.125856
0.125829
0.125802
0.125776
0.12575
0.125724
0.125699
0.125675
0.12565
0.125627
0.125603
0.125581
0.125558
0.125537
0.125515
0.125494
0.125474
0.125454
0.125435
0.125416
0.125398
0.12538
0.125362
0.125346
0.125329
0.125314
0.125299
0.125284
0.12527
0.125257
0.125244
0.125231
0.12522
0.125208
0.125198
0.125188
0.125178
0.12517
0.125161
0.125154
0.125146
0.12514
0.125134
0.125128
0.125124
0.125119
0.125115
0.125112
0.125109
0.125106
0.125104
0.125102
0.1251
0.125099
0.125098
0.125097
0.125096
0.125095
0.125095
0.125094
0.125094
0.1
0.100006
0.100012
0.100019
0.100026
0.100034
0.100044
0.100057
0.100073
0.100093
0.100117
0.100147
0.100183
0.100225
0.100274
0.100328
0.100389
0.100457
0.10053
0.10061
0.100695
0.100784
0.100879
0.100978
0.101081
0.101189
0.1013
0.101415
0.101534
0.101656
0.101783
0.101915
0.102051
0.102192
0.102339
0.102492
0.102651
0.102816
0.102989
0.10317
0.103358
0.103554
0.103758
0.103971
0.104192
0.104422
0.10466
0.104907
0.105162
0.105425
0.105697
0.105977
0.106266
0.106562
0.106867
0.10718
0.107502
0.107831
0.108169
0.108516
0.10887
0.109234
0.109605
0.109986
0.110375
0.110773
0.11118
0.111595
0.112019
0.112451
0.112891
0.113339
0.113795
0.114259
0.11473
0.115207
0.11569
0.11618
0.116674
0.117174
0.117678
0.118185
0.118696
0.119209
0.119724
0.120241
0.120758
0.121276
0.121793
0.12231
0.122825
0.123338
0.123849
0.124357
0.124861
0.125361
0.125856
0.126346
0.126831
0.12731
0.127782
0.128248
0.128706
0.129156
0.129598
0.130032
0.130457
0.130872
0.131278
0.131675
0.132061
0.132437
0.132802
0.133157
0.1335
0.133833
0.134155
0.134465
0.134764
0.135052
0.135328
0.135593
0.135847
0.13609
0.136322
0.136543
0.136753
0.136952
0.137141
0.13732
0.137488
0.137647
0.137796
0.137935
0.138065
0.138185
0.138297
0.1384
0.138495
0.138581
0.138659
0.138729
0.138792
0.138847
0.138895
0.138936
0.138969
0.138996
0.139017
0.139031
0.139039
0.139041
0.139037
0.139027
0.139012
0.138992
0.138967
0.138936
0.138901
0.138861
0.138817
0.138769
0.138716
0.13866
0.1386
0.138536
0.13847
0.138399
0.138326
0.13825
0.138172
0.13809
0.138007
0.137921
0.137833
0.137742
0.13765
0.137557
0.137461
0.137364
0.137266
0.137166
0.137065
0.136962
0.136859
0.136754
0.136649
0.136543
0.136436
0.136328
0.136219
0.13611
0.136001
0.135891
0.13578
0.135669
0.135558
0.135447
0.135335
0.135224
0.135112
0.135001
0.134889
0.134778
0.134667
0.134556
0.134445
0.134335
0.134225
0.134116
0.134007
0.133899
0.133791
0.133683
0.133577
0.133471
0.133365
0.13326
0.133156
0.133053
0.13295
0.132848
0.132746
0.132645
0.132546
0.132446
0.132348
0.13225
0.132153
0.132057
0.131961
0.131867
0.131773
0.13168
0.131587
0.131496
0.131405
0.131315
0.131226
0.131138
0.131051
0.130965
0.130879
0.130794
0.130711
0.130628
0.130546
0.130465
0.130384
0.130305
0.130226
0.130149
0.130072
0.129996
0.129921
0.129846
0.129773
0.1297
0.129628
0.129557
0.129487
0.129417
0.129348
0.12928
0.129213
0.129146
0.12908
0.129015
0.128951
0.128887
0.128824
0.128762
0.128701
0.12864
0.12858
0.12852
0.128462
0.128404
0.128346
0.12829
0.128234
0.128178
0.128123
0.128069
0.128016
0.127963
0.127911
0.127859
0.127808
0.127758
0.127708
0.127659
0.12761
0.127562
0.127514
0.127467
0.12742
0.127374
0.127328
0.127283
0.127239
0.127195
0.127151
0.127108
0.127065
0.127023
0.126981
0.12694
0.126899
0.126859
0.126819
0.126779
0.12674
0.126702
0.126663
0.126626
0.126588
0.126552
0.126515
0.126479
0.126443
0.126408
0.126374
0.126339
0.126305
0.126272
0.126238
0.126206
0.126173
0.126141
0.12611
0.126079
0.126048
0.126017
0.125987
0.125958
0.125929
0.1259
0.125872
0.125844
0.125816
0.125789
0.125763
0.125736
0.125711
0.125685
0.12566
0.125636
0.125612
0.125588
0.125565
0.125543
0.125521
0.125499
0.125478
0.125457
0.125437
0.125417
0.125398
0.125379
0.125361
0.125344
0.125327
0.12531
0.125294
0.125279
0.125264
0.125249
0.125236
0.125222
0.12521
0.125198
0.125186
0.125175
0.125165
0.125155
0.125146
0.125138
0.12513
0.125122
0.125116
0.125109
0.125104
0.125099
0.125094
0.12509
0.125086
0.125083
0.12508
0.125078
0.125076
0.125074
0.125072
0.125071
0.12507
0.125069
0.125068
0.125068
0.125067
0.125067
0.1
0.100006
0.100012
0.100018
0.100025
0.100034
0.100044
0.100056
0.100072
0.100092
0.100117
0.100147
0.100182
0.100224
0.100272
0.100327
0.100388
0.100455
0.100528
0.100607
0.100691
0.10078
0.100875
0.100973
0.101076
0.101183
0.101293
0.101408
0.101526
0.101648
0.101775
0.101906
0.102041
0.102182
0.102328
0.10248
0.102639
0.102804
0.102977
0.103157
0.103344
0.10354
0.103744
0.103956
0.104177
0.104406
0.104644
0.10489
0.105145
0.105408
0.105679
0.105959
0.106247
0.106544
0.106849
0.107162
0.107483
0.107813
0.108151
0.108498
0.108853
0.109216
0.109589
0.10997
0.11036
0.110759
0.111166
0.111582
0.112007
0.112441
0.112882
0.113332
0.11379
0.114255
0.114727
0.115206
0.115692
0.116183
0.11668
0.117181
0.117687
0.118197
0.11871
0.119225
0.119743
0.120262
0.120782
0.121302
0.121822
0.122341
0.122859
0.123374
0.123887
0.124397
0.124904
0.125406
0.125903
0.126396
0.126883
0.127363
0.127837
0.128305
0.128764
0.129216
0.129659
0.130094
0.13052
0.130937
0.131344
0.131741
0.132127
0.132504
0.132869
0.133224
0.133568
0.133901
0.134223
0.134533
0.134832
0.135119
0.135395
0.13566
0.135914
0.136156
0.136387
0.136608
0.136817
0.137016
0.137204
0.137382
0.137549
0.137707
0.137855
0.137993
0.138122
0.138242
0.138353
0.138455
0.138549
0.138634
0.138711
0.138781
0.138842
0.138896
0.138943
0.138983
0.139016
0.139042
0.139062
0.139075
0.139082
0.139083
0.139078
0.139068
0.139052
0.139031
0.139005
0.138973
0.138938
0.138897
0.138852
0.138803
0.13875
0.138693
0.138632
0.138568
0.1385
0.13843
0.138356
0.138279
0.1382
0.138118
0.138034
0.137947
0.137859
0.137768
0.137675
0.137581
0.137485
0.137387
0.137289
0.137188
0.137087
0.136984
0.13688
0.136775
0.136669
0.136563
0.136455
0.136347
0.136238
0.136129
0.136019
0.135908
0.135797
0.135686
0.135575
0.135463
0.135352
0.13524
0.135128
0.135016
0.134904
0.134793
0.134681
0.13457
0.13446
0.134349
0.134239
0.134129
0.13402
0.133912
0.133804
0.133696
0.133589
0.133483
0.133377
0.133272
0.133168
0.133064
0.132961
0.132859
0.132757
0.132656
0.132556
0.132457
0.132358
0.13226
0.132163
0.132067
0.131971
0.131876
0.131782
0.131689
0.131596
0.131505
0.131414
0.131324
0.131235
0.131147
0.131059
0.130973
0.130887
0.130802
0.130718
0.130635
0.130553
0.130472
0.130391
0.130312
0.130233
0.130155
0.130078
0.130002
0.129926
0.129852
0.129778
0.129705
0.129633
0.129562
0.129491
0.129422
0.129353
0.129284
0.129217
0.12915
0.129084
0.129019
0.128954
0.128891
0.128827
0.128765
0.128703
0.128642
0.128582
0.128522
0.128463
0.128405
0.128348
0.128291
0.128234
0.128179
0.128124
0.12807
0.128016
0.127963
0.12791
0.127858
0.127807
0.127757
0.127706
0.127657
0.127608
0.127559
0.127511
0.127464
0.127417
0.127371
0.127325
0.12728
0.127235
0.12719
0.127146
0.127103
0.12706
0.127017
0.126975
0.126934
0.126893
0.126852
0.126812
0.126772
0.126733
0.126694
0.126655
0.126617
0.12658
0.126543
0.126506
0.126469
0.126434
0.126398
0.126363
0.126328
0.126294
0.12626
0.126227
0.126193
0.126161
0.126128
0.126096
0.126065
0.126034
0.126003
0.125973
0.125943
0.125913
0.125884
0.125856
0.125827
0.125799
0.125772
0.125745
0.125718
0.125692
0.125667
0.125641
0.125616
0.125592
0.125568
0.125545
0.125522
0.125499
0.125477
0.125456
0.125435
0.125414
0.125394
0.125374
0.125355
0.125337
0.125319
0.125301
0.125284
0.125268
0.125252
0.125237
0.125222
0.125208
0.125194
0.125181
0.125169
0.125157
0.125146
0.125135
0.125125
0.125116
0.125107
0.125099
0.125091
0.125084
0.125077
0.125071
0.125066
0.125061
0.125056
0.125052
0.125049
0.125046
0.125043
0.125041
0.125039
0.125037
0.125036
0.125035
0.125034
0.125033
0.125032
0.125031
0.125031
0.1
0.100006
0.100012
0.100018
0.100025
0.100033
0.100043
0.100056
0.100072
0.100092
0.100116
0.100146
0.100181
0.100223
0.100271
0.100325
0.100385
0.100452
0.100525
0.100603
0.100687
0.100776
0.100869
0.100967
0.101069
0.101176
0.101286
0.101399
0.101517
0.101639
0.101764
0.101895
0.102029
0.10217
0.102315
0.102467
0.102625
0.102789
0.102961
0.10314
0.103328
0.103523
0.103726
0.103938
0.104158
0.104386
0.104624
0.104869
0.105124
0.105386
0.105657
0.105937
0.106225
0.106521
0.106826
0.107139
0.10746
0.10779
0.108128
0.108475
0.108831
0.109195
0.109568
0.10995
0.110341
0.110741
0.11115
0.111567
0.111993
0.112428
0.112872
0.113323
0.113783
0.11425
0.114724
0.115206
0.115693
0.116187
0.116686
0.117191
0.117699
0.118212
0.118727
0.119246
0.119766
0.120288
0.120811
0.121334
0.121857
0.122379
0.1229
0.123418
0.123934
0.124447
0.124956
0.125461
0.125961
0.126456
0.126946
0.127429
0.127905
0.128374
0.128836
0.129289
0.129734
0.130171
0.130598
0.131016
0.131424
0.131821
0.132209
0.132586
0.132952
0.133307
0.133651
0.133984
0.134306
0.134616
0.134915
0.135202
0.135478
0.135742
0.135995
0.136237
0.136467
0.136687
0.136895
0.137093
0.13728
0.137457
0.137624
0.137781
0.137927
0.138065
0.138193
0.138311
0.138421
0.138522
0.138615
0.138699
0.138775
0.138843
0.138904
0.138957
0.139002
0.139041
0.139073
0.139098
0.139116
0.139128
0.139134
0.139134
0.139129
0.139117
0.1391
0.139078
0.139051
0.139019
0.138982
0.13894
0.138895
0.138845
0.138791
0.138733
0.138671
0.138606
0.138538
0.138466
0.138392
0.138314
0.138234
0.138152
0.138067
0.13798
0.13789
0.137799
0.137706
0.137611
0.137514
0.137416
0.137316
0.137216
0.137113
0.13701
0.136906
0.1368
0.136694
0.136587
0.136479
0.13637
0.136261
0.136151
0.136041
0.13593
0.135819
0.135707
0.135595
0.135483
0.135371
0.135259
0.135147
0.135035
0.134923
0.134811
0.134699
0.134588
0.134477
0.134366
0.134255
0.134146
0.134036
0.133927
0.133819
0.133711
0.133604
0.133497
0.133391
0.133286
0.133182
0.133078
0.132974
0.132872
0.13277
0.132669
0.132569
0.132469
0.13237
0.132272
0.132175
0.132078
0.131982
0.131887
0.131793
0.1317
0.131607
0.131515
0.131424
0.131334
0.131245
0.131156
0.131069
0.130982
0.130896
0.130811
0.130727
0.130644
0.130561
0.13048
0.130399
0.130319
0.13024
0.130162
0.130085
0.130009
0.129933
0.129858
0.129784
0.129711
0.129639
0.129567
0.129497
0.129427
0.129357
0.129289
0.129221
0.129154
0.129088
0.129022
0.128958
0.128894
0.12883
0.128768
0.128706
0.128644
0.128584
0.128524
0.128465
0.128406
0.128348
0.128291
0.128235
0.128179
0.128124
0.128069
0.128015
0.127962
0.127909
0.127857
0.127805
0.127754
0.127704
0.127654
0.127605
0.127556
0.127507
0.12746
0.127413
0.127366
0.12732
0.127274
0.127229
0.127184
0.12714
0.127096
0.127053
0.12701
0.126967
0.126925
0.126884
0.126843
0.126802
0.126762
0.126723
0.126683
0.126644
0.126606
0.126568
0.12653
0.126493
0.126457
0.12642
0.126384
0.126349
0.126314
0.126279
0.126245
0.126211
0.126177
0.126144
0.126111
0.126079
0.126047
0.126016
0.125984
0.125954
0.125923
0.125893
0.125864
0.125835
0.125806
0.125778
0.12575
0.125722
0.125695
0.125669
0.125642
0.125617
0.125591
0.125567
0.125542
0.125518
0.125495
0.125472
0.125449
0.125427
0.125406
0.125385
0.125364
0.125344
0.125325
0.125306
0.125287
0.125269
0.125252
0.125235
0.125219
0.125203
0.125188
0.125173
0.125159
0.125145
0.125133
0.12512
0.125109
0.125097
0.125087
0.125077
0.125068
0.125059
0.125051
0.125043
0.125036
0.12503
0.125024
0.125019
0.125014
0.12501
0.125006
0.125002
0.124999
0.124997
0.124995
0.124993
0.124991
0.12499
0.124989
0.124988
0.124987
0.124986
0.124986
0.1
0.100006
0.100012
0.100018
0.100025
0.100033
0.100043
0.100056
0.100071
0.100091
0.100115
0.100145
0.10018
0.100221
0.100269
0.100323
0.100383
0.100449
0.100521
0.100599
0.100682
0.10077
0.100863
0.10096
0.101062
0.101167
0.101276
0.101389
0.101506
0.101627
0.101752
0.101881
0.102015
0.102155
0.1023
0.102451
0.102608
0.102772
0.102943
0.103121
0.103308
0.103502
0.103705
0.103916
0.104135
0.104363
0.1046
0.104845
0.105098
0.105361
0.105631
0.105911
0.106198
0.106494
0.106799
0.107112
0.107433
0.107763
0.108102
0.108449
0.108805
0.10917
0.109544
0.109927
0.110319
0.11072
0.11113
0.111549
0.111977
0.112413
0.112859
0.113312
0.113774
0.114244
0.114721
0.115204
0.115695
0.116192
0.116694
0.117201
0.117713
0.118229
0.118748
0.119269
0.119793
0.120319
0.120845
0.121372
0.121899
0.122424
0.122948
0.12347
0.12399
0.124506
0.125019
0.125527
0.12603
0.126528
0.12702
0.127506
0.127985
0.128456
0.12892
0.129376
0.129823
0.130261
0.13069
0.131109
0.131518
0.131917
0.132306
0.132683
0.13305
0.133406
0.13375
0.134083
0.134404
0.134714
0.135013
0.135299
0.135575
0.135838
0.136091
0.136332
0.136561
0.13678
0.136988
0.137184
0.137371
0.137546
0.137712
0.137867
0.138013
0.138149
0.138276
0.138393
0.138502
0.138601
0.138692
0.138775
0.13885
0.138917
0.138976
0.139028
0.139072
0.139109
0.13914
0.139164
0.139181
0.139192
0.139196
0.139195
0.139188
0.139175
0.139157
0.139134
0.139105
0.139072
0.139034
0.138992