# vtk DataFile Version 3.0
LBM Fluid Grid
ASCII
DATASET STRUCTURED_POINTS
DIMENSIONS 400 150 1
ORIGIN 0 0 0
SPACING 1 1 1
POINT_DATA 60000
SCALARS VelocityMagnitude double 1
LOOKUP_TABLE default
0.1
0.100009
0.10002
0.100034
0.100051
0.10007
0.100091
0.100115
0.100141
0.10017
0.100203
0.100239
0.100278
0.100322
0.100369
0.100422
0.100479
0.10054
0.100607
0.100679
0.100757
0.100839
0.100927
0.10102
0.101119
0.101222
0.101331
0.101445
0.101564
0.101689
0.101818
0.101953
0.102093
0.102238
0.102389
0.102546
0.102709
0.102878
0.103053
0.103235
0.103423
0.103619
0.103822
0.104033
0.104252
0.104478
0.104712
0.104955
0.105206
0.105466
0.105734
0.10601
0.106296
0.10659
0.106892
0.107204
0.107524
0.107853
0.10819
0.108536
0.108891
0.109254
0.109626
0.110007
0.110396
0.110793
0.111198
0.111612
0.112033
0.112463
0.1129
0.113345
0.113796
0.114255
0.114721
0.115193
0.115671
0.116155
0.116643
0.117137
0.117635
0.118137
0.118642
0.119151
0.119661
0.120173
0.120686
0.1212
0.121714
0.122227
0.122739
0.123249
0.123757
0.124262
0.124764
0.125261
0.125754
0.126242
0.126724
0.127201
0.12767
0.128133
0.128589
0.129037
0.129476
0.129908
0.13033
0.130743
0.131147
0.131541
0.131925
0.1323
0.132663
0.133017
0.13336
0.133692
0.134013
0.134323
0.134622
0.134911
0.135188
0.135455
0.13571
0.135954
0.136188
0.136411
0.136623
0.136825
0.137016
0.137197
0.137368
0.137529
0.13768
0.137821
0.137953
0.138076
0.138189
0.138294
0.13839
0.138478
0.138558
0.138629
0.138693
0.138749
0.138798
0.13884
0.138874
0.138902
0.138924
0.138939
0.138948
0.138951
0.138948
0.13894
0.138926
0.138907
0.138883
0.138854
0.138821
0.138783
0.13874
0.138694
0.138643
0.138589
0.138531
0.138469
0.138404
0.138336
0.138264
0.13819
0.138113
0.138033
0.137951
0.137866
0.137779
0.13769
0.137599
0.137507
0.137412
0.137316
0.137218
0.137119
0.137019
0.136918
0.136815
0.136711
0.136607
0.136501
0.136395
0.136288
0.136181
0.136073
0.135964
0.135855
0.135746
0.135637
0.135527
0.135417
0.135307
0.135197
0.135087
0.134976
0.134866
0.134757
0.134647
0.134537
0.134428
0.134319
0.13421
0.134102
0.133994
0.133887
0.13378
0.133674
0.133568
0.133463
0.133358
0.133254
0.133151
0.133048
0.132946
0.132845
0.132744
0.132644
0.132545
0.132447
0.132349
0.132252
0.132156
0.132061
0.131966
0.131873
0.13178
0.131687
0.131596
0.131506
0.131416
0.131327
0.131239
0.131151
0.131065
0.130979
0.130894
0.13081
0.130727
0.130645
0.130563
0.130483
0.130403
0.130324
0.130245
0.130168
0.130091
0.130016
0.129941
0.129866
0.129793
0.12972
0.129648
0.129577
0.129507
0.129438
0.129369
0.129301
0.129234
0.129167
0.129101
0.129036
0.128972
0.128908
0.128845
0.128783
0.128722
0.128661
0.1286
0.128541
0.128482
0.128424
0.128366
0.128309
0.128253
0.128197
0.128142
0.128088
0.128034
0.127981
0.127928
0.127876
0.127825
0.127774
0.127723
0.127674
0.127625
0.127576
0.127528
0.12748
0.127434
0.127387
0.127341
0.127296
0.127251
0.127207
0.127163
0.127119
0.127077
0.127034
0.126992
0.126951
0.12691
0.12687
0.12683
0.12679
0.126751
0.126713
0.126674
0.126637
0.1266
0.126563
0.126526
0.126491
0.126455
0.12642
0.126386
0.126352
0.126318
0.126285
0.126252
0.12622
0.126188
0.126156
0.126125
0.126095
0.126065
0.126035
0.126006
0.125977
0.125948
0.12592
0.125893
0.125866
0.125839
0.125813
0.125787
0.125762
0.125737
0.125713
0.125689
0.125665
0.125643
0.12562
0.125598
0.125577
0.125555
0.125535
0.125515
0.125495
0.125476
0.125458
0.12544
0.125422
0.125405
0.125389
0.125373
0.125358
0.125343
0.125329
0.125315
0.125302
0.12529
0.125278
0.125266
0.125256
0.125245
0.125236
0.125226
0.125218
0.12521
0.125203
0.125196
0.125189
0.125184
0.125179
0.125174
0.12517
0.125166
0.125163
0.12516
0.125157
0.125156
0.125154
0.125153
0.125152
0.125151
0.12515
0.12515
0.125149
0.125149
0.125148
0.125148
0.125148
0.1
0.100009
0.10002
0.100034
0.100051
0.10007
0.100091
0.100115
0.100141
0.10017
0.100203
0.100239
0.100278
0.100322
0.100369
0.100421
0.100478
0.10054
0.100607
0.100679
0.100756
0.100839
0.100927
0.10102
0.101118
0.101222
0.101331
0.101445
0.101564
0.101688
0.101817
0.101952
0.102092
0.102237
0.102388
0.102545
0.102707
0.102876
0.103051
0.103233
0.103422
0.103618
0.103821
0.104031
0.10425
0.104476
0.104711
0.104953
0.105204
0.105464
0.105732
0.106008
0.106294
0.106588
0.10689
0.107202
0.107522
0.107851
0.108188
0.108534
0.108889
0.109253
0.109625
0.110005
0.110394
0.110791
0.111197
0.11161
0.112032
0.112462
0.112899
0.113344
0.113796
0.114255
0.114721
0.115193
0.115671
0.116155
0.116644
0.117138
0.117636
0.118139
0.118644
0.119152
0.119663
0.120175
0.120689
0.121203
0.121717
0.12223
0.122743
0.123253
0.123761
0.124267
0.124768
0.125266
0.125759
0.126247
0.12673
0.127207
0.127677
0.12814
0.128595
0.129043
0.129483
0.129914
0.130337
0.13075
0.131154
0.131549
0.131933
0.132307
0.132671
0.133024
0.133367
0.133699
0.13402
0.134331
0.13463
0.134918
0.135196
0.135462
0.135717
0.135962
0.136195
0.136418
0.13663
0.136832
0.137023
0.137204
0.137375
0.137535
0.137686
0.137827
0.137959
0.138082
0.138195
0.1383
0.138396
0.138484
0.138563
0.138635
0.138699
0.138755
0.138803
0.138845
0.13888
0.138908
0.138929
0.138944
0.138953
0.138956
0.138953
0.138944
0.138931
0.138912
0.138887
0.138859
0.138825
0.138787
0.138744
0.138698
0.138647
0.138592
0.138534
0.138472
0.138407
0.138339
0.138267
0.138193
0.138116
0.138036
0.137954
0.137869
0.137782
0.137693
0.137602
0.137509
0.137415
0.137319
0.137221
0.137122
0.137022
0.13692
0.136817
0.136714
0.136609
0.136504
0.136397
0.13629
0.136183
0.136075
0.135966
0.135857
0.135748
0.135639
0.135529
0.135419
0.135309
0.135199
0.135088
0.134978
0.134868
0.134758
0.134648
0.134539
0.13443
0.134321
0.134212
0.134104
0.133996
0.133889
0.133782
0.133675
0.133569
0.133464
0.13336
0.133256
0.133152
0.133049
0.132947
0.132846
0.132745
0.132646
0.132546
0.132448
0.13235
0.132253
0.132157
0.132062
0.131967
0.131874
0.131781
0.131689
0.131597
0.131507
0.131417
0.131328
0.13124
0.131152
0.131066
0.13098
0.130895
0.130811
0.130728
0.130646
0.130564
0.130483
0.130404
0.130324
0.130246
0.130169
0.130092
0.130016
0.129941
0.129867
0.129794
0.129721
0.129649
0.129578
0.129508
0.129438
0.12937
0.129302
0.129234
0.129168
0.129102
0.129037
0.128972
0.128909
0.128846
0.128784
0.128722
0.128661
0.128601
0.128541
0.128482
0.128424
0.128366
0.128309
0.128253
0.128197
0.128142
0.128088
0.128034
0.127981
0.127928
0.127876
0.127825
0.127774
0.127723
0.127674
0.127625
0.127576
0.127528
0.12748
0.127433
0.127387
0.127341
0.127296
0.127251
0.127206
0.127162
0.127119
0.127076
0.127034
0.126992
0.126951
0.12691
0.126869
0.126829
0.12679
0.12675
0.126712
0.126674
0.126636
0.126599
0.126562
0.126526
0.12649
0.126454
0.126419
0.126385
0.126351
0.126317
0.126284
0.126251
0.126219
0.126187
0.126155
0.126124
0.126093
0.126063
0.126034
0.126004
0.125975
0.125947
0.125919
0.125891
0.125864
0.125838
0.125811
0.125786
0.12576
0.125735
0.125711
0.125687
0.125664
0.125641
0.125618
0.125596
0.125574
0.125553
0.125533
0.125513
0.125493
0.125474
0.125456
0.125437
0.12542
0.125403
0.125387
0.125371
0.125355
0.125341
0.125326
0.125313
0.125299
0.125287
0.125275
0.125263
0.125253
0.125242
0.125233
0.125223
0.125215
0.125207
0.125199
0.125193
0.125186
0.12518
0.125175
0.12517
0.125166
0.125162
0.125159
0.125156
0.125154
0.125152
0.12515
0.125149
0.125148
0.125147
0.125146
0.125146
0.125145
0.125145
0.125145
0.125144
0.125144
0.1
0.100009
0.10002
0.100034
0.100051
0.100069
0.100091
0.100114
0.100141
0.10017
0.100202
0.100238
0.100278
0.100321
0.100369
0.100421
0.100477
0.100539
0.100606
0.100678
0.100755
0.100837
0.100925
0.101018
0.101116
0.10122
0.101328
0.101442
0.101561
0.101685
0.101814
0.101949
0.102089
0.102234
0.102385
0.102541
0.102704
0.102872
0.103047
0.103229
0.103417
0.103613
0.103816
0.104026
0.104245
0.104471
0.104705
0.104948
0.105199
0.105458
0.105726
0.106002
0.106288
0.106582
0.106884
0.107196
0.107516
0.107845
0.108182
0.108529
0.108884
0.109247
0.109619
0.11
0.110389
0.110787
0.111192
0.111606
0.112029
0.112459
0.112896
0.113342
0.113794
0.114254
0.11472
0.115193
0.115672
0.116156
0.116646
0.117141
0.11764
0.118143
0.118649
0.119158
0.11967
0.120183
0.120697
0.121212
0.121727
0.122241
0.122754
0.123265
0.123774
0.12428
0.124783
0.125281
0.125775
0.126264
0.126747
0.127224
0.127695
0.128159
0.128615
0.129063
0.129504
0.129935
0.130358
0.130772
0.131176
0.131571
0.131955
0.13233
0.132694
0.133047
0.13339
0.133722
0.134043
0.134353
0.134653
0.134941
0.135218
0.135484
0.13574
0.135984
0.136217
0.13644
0.136652
0.136853
0.137044
0.137225
0.137395
0.137555
0.137706
0.137847
0.137979
0.138101
0.138214
0.138319
0.138414
0.138502
0.138581
0.138652
0.138715
0.138771
0.13882
0.138861
0.138895
0.138923
0.138944
0.138959
0.138967
0.13897
0.138967
0.138958
0.138944
0.138925
0.1389
0.138871
0.138837
0.138799
0.138756
0.138709
0.138658
0.138603
0.138545
0.138483
0.138418
0.138349
0.138277
0.138203
0.138125
0.138045
0.137963
0.137878
0.137791
0.137702
0.137611
0.137518
0.137423
0.137327
0.137229
0.13713
0.137029
0.136927
0.136824
0.136721
0.136616
0.13651
0.136404
0.136297
0.136189
0.136081
0.135972
0.135863
0.135754
0.135644
0.135534
0.135424
0.135314
0.135204
0.135094
0.134983
0.134873
0.134763
0.134653
0.134544
0.134434
0.134325
0.134217
0.134108
0.134
0.133893
0.133786
0.13368
0.133574
0.133468
0.133364
0.13326
0.133156
0.133053
0.132951
0.13285
0.132749
0.132649
0.13255
0.132452
0.132354
0.132257
0.132161
0.132065
0.131971
0.131877
0.131784
0.131692
0.1316
0.13151
0.13142
0.131331
0.131243
0.131155
0.131069
0.130983
0.130898
0.130814
0.130731
0.130648
0.130567
0.130486
0.130406
0.130327
0.130249
0.130171
0.130094
0.130019
0.129944
0.129869
0.129796
0.129723
0.129651
0.12958
0.12951
0.12944
0.129371
0.129303
0.129236
0.129169
0.129104
0.129038
0.128974
0.12891
0.128847
0.128785
0.128723
0.128662
0.128602
0.128542
0.128483
0.128425
0.128367
0.12831
0.128254
0.128198
0.128143
0.128088
0.128034
0.127981
0.127928
0.127876
0.127825
0.127774
0.127723
0.127674
0.127624
0.127576
0.127527
0.12748
0.127433
0.127386
0.12734
0.127295
0.12725
0.127205
0.127161
0.127118
0.127075
0.127033
0.126991
0.126949
0.126908
0.126867
0.126827
0.126788
0.126749
0.12671
0.126672
0.126634
0.126596
0.12656
0.126523
0.126487
0.126452
0.126416
0.126382
0.126348
0.126314
0.12628
0.126248
0.126215
0.126183
0.126151
0.12612
0.12609
0.126059
0.126029
0.126
0.125971
0.125942
0.125914
0.125887
0.125859
0.125833
0.125806
0.12578
0.125755
0.12573
0.125705
0.125681
0.125658
0.125635
0.125612
0.12559
0.125568
0.125547
0.125526
0.125506
0.125486
0.125467
0.125448
0.12543
0.125413
0.125396
0.125379
0.125363
0.125347
0.125332
0.125318
0.125304
0.125291
0.125278
0.125266
0.125255
0.125244
0.125233
0.125223
0.125214
0.125205
0.125197
0.12519
0.125183
0.125176
0.12517
0.125165
0.12516
0.125156
0.125152
0.125149
0.125146
0.125143
0.125141
0.125139
0.125138
0.125137
0.125136
0.125135
0.125135
0.125134
0.125134
0.125133
0.125133
0.125133
0.1
0.100009
0.10002
0.100034
0.10005
0.100069
0.10009
0.100114
0.10014
0.10017
0.100202
0.100237
0.100277
0.10032
0.100367
0.100419
0.100476
0.100538
0.100604
0.100676
0.100753
0.100835
0.100923
0.101015
0.101113
0.101217
0.101325
0.101438
0.101557
0.101681
0.10181
0.101944
0.102083
0.102228
0.102379
0.102535
0.102697
0.102865
0.10304
0.103221
0.10341
0.103605
0.103808
0.104018
0.104236
0.104462
0.104696
0.104938
0.105189
0.105448
0.105716
0.105993
0.106278
0.106572
0.106874
0.107186
0.107506
0.107835
0.108173
0.108519
0.108874
0.109238
0.10961
0.109991
0.110381
0.110779
0.111185
0.1116
0.112023
0.112453
0.112892
0.113338
0.113791
0.114252
0.114719
0.115193
0.115673
0.116158
0.116649
0.117145
0.117646
0.11815
0.118657
0.119168
0.119681
0.120195
0.120711
0.121227
0.121743
0.122259
0.122773
0.123286
0.123796
0.124303
0.124807
0.125307
0.125802
0.126292
0.126776
0.127254
0.127726
0.12819
0.128647
0.129097
0.129538
0.12997
0.130393
0.130808
0.131212
0.131607
0.131992
0.132367
0.132731
0.133085
0.133428
0.13376
0.134081
0.134391
0.134691
0.134979
0.135256
0.135522
0.135777
0.136021
0.136254
0.136476
0.136688
0.136888
0.137079
0.137259
0.137429
0.137589
0.137739
0.13788
0.138011
0.138133
0.138245
0.138349
0.138445
0.138531
0.13861
0.138681
0.138744
0.138799
0.138847
0.138888
0.138921
0.138949
0.138969
0.138983
0.138991
0.138994
0.13899
0.138981
0.138966
0.138946
0.138922
0.138892
0.138858
0.138819
0.138776
0.138728
0.138677
0.138622
0.138563
0.138501
0.138435
0.138366
0.138294
0.138219
0.138141
0.138061
0.137978
0.137893
0.137806
0.137716
0.137625
0.137531
0.137436
0.13734
0.137242
0.137142
0.137041
0.136939
0.136836
0.136732
0.136627
0.136522
0.136415
0.136308
0.1362
0.136091
0.135983
0.135873
0.135764
0.135654
0.135544
0.135434
0.135323
0.135213
0.135102
0.134992
0.134882
0.134772
0.134662
0.134552
0.134442
0.134333
0.134224
0.134116
0.134008
0.1339
0.133793
0.133687
0.133581
0.133475
0.133371
0.133266
0.133163
0.13306
0.132958
0.132856
0.132755
0.132655
0.132556
0.132458
0.13236
0.132263
0.132167
0.132071
0.131976
0.131882
0.131789
0.131697
0.131606
0.131515
0.131425
0.131336
0.131248
0.13116
0.131074
0.130988
0.130903
0.130819
0.130735
0.130653
0.130571
0.13049
0.13041
0.130331
0.130253
0.130175
0.130098
0.130022
0.129947
0.129873
0.129799
0.129726
0.129655
0.129583
0.129513
0.129443
0.129374
0.129306
0.129239
0.129172
0.129106
0.129041
0.128976
0.128912
0.128849
0.128787
0.128725
0.128664
0.128604
0.128544
0.128485
0.128426
0.128368
0.128311
0.128255
0.128199
0.128144
0.128089
0.128035
0.127981
0.127929
0.127876
0.127825
0.127774
0.127723
0.127673
0.127624
0.127575
0.127527
0.127479
0.127432
0.127385
0.127339
0.127293
0.127248
0.127204
0.12716
0.127116
0.127073
0.12703
0.126988
0.126946
0.126905
0.126864
0.126824
0.126784
0.126745
0.126706
0.126668
0.12663
0.126592
0.126555
0.126519
0.126482
0.126447
0.126411
0.126377
0.126342
0.126308
0.126275
0.126242
0.126209
0.126177
0.126145
0.126114
0.126083
0.126052
0.126022
0.125993
0.125963
0.125935
0.125906
0.125878
0.125851
0.125824
0.125797
0.125771
0.125746
0.125721
0.125696
0.125672
0.125648
0.125624
0.125602
0.125579
0.125557
0.125536
0.125515
0.125495
0.125475
0.125455
0.125436
0.125418
0.1254
0.125383
0.125366
0.12535
0.125334
0.125319
0.125304
0.12529
0.125277
0.125264
0.125251
0.12524
0.125229
0.125218
0.125208
0.125198
0.125189
0.125181
0.125173
0.125166
0.12516
0.125154
0.125148
0.125143
0.125138
0.125134
0.125131
0.125128
0.125125
0.125123
0.125121
0.12512
0.125118
0.125117
0.125117
0.125116
0.125116
0.125115
0.125114
0.125114
0.125114
0.1
0.100009
0.10002
0.100034
0.10005
0.100069
0.10009
0.100114
0.10014
0.100169
0.100201
0.100236
0.100276
0.100319
0.100366
0.100418
0.100474
0.100535
0.100602
0.100673
0.10075
0.100832
0.100919
0.101011
0.101109
0.101212
0.10132
0.101433
0.101551
0.101675
0.101803
0.101937
0.102076
0.10222
0.10237
0.102526
0.102688
0.102856
0.10303
0.103211
0.103399
0.103594
0.103796
0.104006
0.104224
0.104449
0.104683
0.104925
0.105176
0.105435
0.105702
0.105979
0.106264
0.106558
0.10686
0.107172
0.107492
0.107821
0.108159
0.108505
0.108861
0.109225
0.109598
0.109979
0.110369
0.110768
0.111175
0.11159
0.112014
0.112446
0.112885
0.113332
0.113787
0.114249
0.114718
0.115193
0.115674
0.116161
0.116654
0.117152
0.117654
0.11816
0.118669
0.119181
0.119696
0.120212
0.12073
0.121248
0.121766
0.122283
0.1228
0.123314
0.123826
0.124335
0.124841
0.125342
0.125839
0.12633
0.126816
0.127296
0.127769
0.128235
0.128693
0.129143
0.129585
0.130019
0.130443
0.130858
0.131263
0.131659
0.132044
0.132419
0.132784
0.133138
0.133481
0.133813
0.134134
0.134445
0.134744
0.135032
0.135308
0.135574
0.135829
0.136072
0.136305
0.136527
0.136738
0.136938
0.137128
0.137307
0.137477
0.137636
0.137786
0.137925
0.138056
0.138177
0.138289
0.138392
0.138487
0.138573
0.138651
0.138721
0.138783
0.138837
0.138885
0.138925
0.138958
0.138984
0.139004
0.139018
0.139025
0.139027
0.139022
0.139012
0.138997
0.138977
0.138951
0.138921
0.138886
0.138847
0.138803
0.138755
0.138703
0.138648
0.138588
0.138525
0.138459
0.13839
0.138317
0.138242
0.138163
0.138083
0.137999
0.137914
0.137826
0.137736
0.137644
0.13755
0.137455
0.137358
0.13726
0.13716
0.137059
0.136956
0.136853
0.136749
0.136643
0.136537
0.13643
0.136323
0.136215
0.136106
0.135997
0.135887
0.135777
0.135667
0.135557
0.135447
0.135336
0.135225
0.135115
0.135004
0.134894
0.134783
0.134673
0.134563
0.134453
0.134344
0.134235
0.134127
0.134018
0.133911
0.133803
0.133697
0.133591
0.133485
0.13338
0.133276
0.133172
0.133069
0.132967
0.132865
0.132764
0.132664
0.132565
0.132466
0.132368
0.132271
0.132174
0.132079
0.131984
0.13189
0.131797
0.131704
0.131613
0.131522
0.131432
0.131343
0.131254
0.131167
0.13108
0.130994
0.130909
0.130825
0.130741
0.130659
0.130577
0.130496
0.130416
0.130336
0.130258
0.13018
0.130103
0.130027
0.129952
0.129878
0.129804
0.129731
0.129659
0.129588
0.129517
0.129447
0.129378
0.12931
0.129242
0.129175
0.129109
0.129044
0.128979
0.128915
0.128852
0.128789
0.128727
0.128666
0.128606
0.128546
0.128487
0.128428
0.12837
0.128313
0.128256
0.1282
0.128144
0.12809
0.128035
0.127982
0.127929
0.127876
0.127824
0.127773
0.127723
0.127672
0.127623
0.127574
0.127525
0.127477
0.12743
0.127383
0.127337
0.127291
0.127246
0.127201
0.127157
0.127113
0.127069
0.127027
0.126984
0.126942
0.126901
0.12686
0.126819
0.126779
0.12674
0.126701
0.126662
0.126624
0.126586
0.126549
0.126512
0.126476
0.12644
0.126404
0.126369
0.126334
0.1263
0.126266
0.126233
0.1262
0.126168
0.126136
0.126104
0.126073
0.126042
0.126012
0.125982
0.125952
0.125923
0.125895
0.125867
0.125839
0.125812
0.125785
0.125758
0.125732
0.125707
0.125682
0.125657
0.125633
0.12561
0.125587
0.125564
0.125542
0.12552
0.125499
0.125478
0.125458
0.125438
0.125419
0.1254
0.125382
0.125364
0.125347
0.125331
0.125315
0.125299
0.125284
0.12527
0.125256
0.125243
0.12523
0.125218
0.125207
0.125196
0.125186
0.125176
0.125167
0.125158
0.12515
0.125143
0.125136
0.125129
0.125124
0.125118
0.125114
0.125109
0.125106
0.125102
0.125099
0.125097
0.125095
0.125093
0.125092
0.125091
0.12509
0.125089
0.125089
0.125088
0.125087
0.125087
0.125087
0.1
0.100009
0.10002
0.100034
0.10005
0.100068
0.100089
0.100113
0.100139
0.100168
0.1002
0.100235
0.100274
0.100317
0.100364
0.100416
0.100472
0.100533
0.100599
0.10067
0.100746
0.100828
0.100914
0.101006
0.101104
0.101206
0.101313
0.101426
0.101544
0.101667
0.101795
0.101928
0.102066
0.10221
0.10236
0.102515
0.102676
0.102843
0.103017
0.103198
0.103385
0.10358
0.103781
0.103991
0.104208
0.104433
0.104667
0.104908
0.105159
0.105417
0.105685
0.105961
0.106246
0.106539
0.106842
0.107153
0.107474
0.107803
0.108141
0.108488
0.108843
0.109208
0.109581
0.109964
0.110354
0.110754
0.111162
0.111578
0.112003
0.112436
0.112877
0.113325
0.113782
0.114245
0.114716
0.115193
0.115676
0.116165
0.11666
0.11716
0.117664
0.118172
0.118684
0.119198
0.119715
0.120234
0.120754
0.121275
0.121795
0.122315
0.122834
0.123351
0.123865
0.124377
0.124884
0.125388
0.125887
0.12638
0.126868
0.12735
0.127824
0.128292
0.128752
0.129203
0.129647
0.130081
0.130507
0.130923
0.131329
0.131725
0.132111
0.132487
0.132852
0.133206
0.133549
0.133882
0.134203
0.134513
0.134812
0.1351
0.135376
0.135641
0.135895
0.136138
0.13637
0.136592
0.136802
0.137002
0.137191
0.13737
0.137538
0.137697
0.137845
0.137984
0.138114
0.138234
0.138345
0.138447
0.138541
0.138626
0.138703
0.138772
0.138833
0.138887
0.138933
0.138972
0.139005
0.13903
0.139049
0.139062
0.139068
0.139069
0.139064
0.139053
0.139037
0.139016
0.13899
0.138958
0.138923
0.138883
0.138838
0.138789
0.138737
0.13868
0.13862
0.138557
0.13849
0.13842
0.138347
0.138271
0.138192
0.13811
0.138027
0.13794
0.137852
0.137762
0.137669
0.137575
0.137479
0.137382
0.137283
0.137182
0.137081
0.136978
0.136874
0.136769
0.136664
0.136557
0.13645
0.136342
0.136233
0.136124
0.136015
0.135905
0.135795
0.135684
0.135574
0.135463
0.135352
0.135241
0.13513
0.135019
0.134909
0.134798
0.134688
0.134577
0.134468
0.134358
0.134249
0.13414
0.134032
0.133924
0.133816
0.133709
0.133603
0.133497
0.133392
0.133287
0.133184
0.13308
0.132978
0.132876
0.132775
0.132675
0.132575
0.132476
0.132378
0.132281
0.132184
0.132089
0.131994
0.131899
0.131806
0.131714
0.131622
0.131531
0.131441
0.131351
0.131263
0.131175
0.131088
0.131002
0.130917
0.130832
0.130749
0.130666
0.130584
0.130503
0.130423
0.130343
0.130264
0.130187
0.13011
0.130033
0.129958
0.129883
0.129809
0.129736
0.129664
0.129593
0.129522
0.129452
0.129383
0.129314
0.129246
0.129179
0.129113
0.129048
0.128983
0.128918
0.128855
0.128792
0.12873
0.128669
0.128608
0.128548
0.128488
0.128429
0.128371
0.128314
0.128257
0.128201
0.128145
0.12809
0.128035
0.127982
0.127928
0.127876
0.127824
0.127772
0.127721
0.127671
0.127621
0.127572
0.127523
0.127475
0.127427
0.12738
0.127333
0.127287
0.127242
0.127197
0.127152
0.127108
0.127064
0.127021
0.126978
0.126936
0.126895
0.126853
0.126813
0.126772
0.126732
0.126693
0.126654
0.126616
0.126577
0.12654
0.126503
0.126466
0.12643
0.126394
0.126358
0.126323
0.126289
0.126255
0.126221
0.126188
0.126155
0.126123
0.126091
0.126059
0.126028
0.125997
0.125967
0.125937
0.125908
0.125879
0.125851
0.125822
0.125795
0.125768
0.125741
0.125715
0.125689
0.125663
0.125638
0.125614
0.12559
0.125566
0.125543
0.125521
0.125499
0.125477
0.125456
0.125435
0.125415
0.125396
0.125377
0.125358
0.12534
0.125323
0.125306
0.125289
0.125273
0.125258
0.125243
0.125229
0.125216
0.125203
0.12519
0.125178
0.125167
0.125156
0.125146
0.125137
0.125128
0.125119
0.125111
0.125104
0.125097
0.125091
0.125086
0.125081
0.125076
0.125072
0.125069
0.125066
0.125063
0.125061
0.125059
0.125057
0.125056
0.125055
0.125054
0.125053
0.125053
0.125052
0.125051
0.125051
0.1
0.100009
0.10002
0.100033
0.10005
0.100068
0.100089
0.100112
0.100138
0.100167
0.100198
0.100234
0.100272
0.100315
0.100362
0.100413
0.100469
0.100529
0.100595
0.100666
0.100741
0.100822
0.100909
0.101
0.101097
0.101199
0.101305
0.101417
0.101535
0.101657
0.101784
0.101917
0.102054
0.102198
0.102347
0.102501
0.102662
0.102828
0.103002
0.103181
0.103368
0.103562
0.103763
0.103972
0.104189
0.104413
0.104646
0.104888
0.105137
0.105396
0.105663
0.105939
0.106223
0.106517
0.106819
0.107131
0.107451
0.10778
0.108119
0.108466
0.108822
0.109187
0.109561
0.109944
0.110336
0.110736
0.111146
0.111563
0.111989
0.112424
0.112866
0.113317
0.113775
0.11424
0.114713
0.115192
0.115678
0.11617
0.116667
0.117169
0.117676
0.118187
0.118702
0.119219
0.119739
0.120261
0.120784
0.121308
0.121831
0.122354
0.122876
0.123396
0.123913
0.124427
0.124938
0.125444
0.125945
0.126441
0.126932
0.127415
0.127892
0.128362
0.128824
0.129277
0.129722
0.130158
0.130585
0.131002
0.131409
0.131807
0.132193
0.13257
0.132935
0.13329
0.133633
0.133966
0.134287
0.134597
0.134895
0.135183
0.135459
0.135723
0.135977
0.136219
0.136451
0.136671
0.136881
0.137079
0.137268
0.137445
0.137613
0.13777
0.137918
0.138056
0.138184
0.138303
0.138413
0.138515
0.138607
0.138691
0.138767
0.138835
0.138895
0.138947
0.138993
0.139031
0.139062
0.139086
0.139104
0.139116
0.139121
0.139121
0.139114
0.139103
0.139086
0.139063
0.139036
0.139004
0.138967
0.138926
0.138881
0.138831
0.138778
0.138721
0.13866
0.138595
0.138527
0.138457
0.138383
0.138306
0.138226
0.138144
0.13806
0.137973
0.137884
0.137793
0.1377
0.137605
0.137508
0.13741
0.137311
0.13721
0.137108
0.137004
0.1369
0.136795
0.136688
0.136581
0.136474
0.136365
0.136256
0.136147
0.136037
0.135927
0.135816
0.135705
0.135594
0.135483
0.135372
0.13526
0.135149
0.135038
0.134927
0.134816
0.134705
0.134595
0.134485
0.134375
0.134265
0.134156
0.134047
0.133939
0.133832
0.133724
0.133618
0.133512
0.133406
0.133302
0.133198
0.133094
0.132991
0.132889
0.132788
0.132687
0.132588
0.132489
0.13239
0.132293
0.132196
0.1321
0.132005
0.131911
0.131817
0.131724
0.131632
0.131541
0.131451
0.131361
0.131273
0.131185
0.131098
0.131011
0.130926
0.130841
0.130757
0.130674
0.130592
0.130511
0.13043
0.130351
0.130272
0.130194
0.130117
0.13004
0.129964
0.12989
0.129816
0.129742
0.12967
0.129598
0.129527
0.129457
0.129387
0.129319
0.129251
0.129184
0.129117
0.129051
0.128986
0.128922
0.128858
0.128795
0.128732
0.128671
0.12861
0.128549
0.12849
0.128431
0.128372
0.128314
0.128257
0.128201
0.128145
0.128089
0.128035
0.12798
0.127927
0.127874
0.127822
0.12777
0.127718
0.127668
0.127618
0.127568
0.127519
0.127471
0.127423
0.127375
0.127328
0.127282
0.127236
0.12719
0.127145
0.127101
0.127057
0.127014
0.126971
0.126928
0.126886
0.126844
0.126803
0.126762
0.126722
0.126682
0.126643
0.126604
0.126566
0.126528
0.12649
0.126453
0.126416
0.12638
0.126344
0.126309
0.126274
0.12624
0.126205
0.126172
0.126139
0.126106
0.126073
0.126041
0.12601
0.125979
0.125948
0.125918
0.125888
0.125859
0.12583
0.125801
0.125773
0.125746
0.125718
0.125692
0.125665
0.125639
0.125614
0.125589
0.125565
0.125541
0.125517
0.125494
0.125471
0.125449
0.125428
0.125407
0.125386
0.125366
0.125347
0.125328
0.125309
0.125291
0.125274
0.125257
0.12524
0.125225
0.125209
0.125195
0.125181
0.125167
0.125154
0.125142
0.12513
0.125119
0.125108
0.125098
0.125089
0.12508
0.125072
0.125064
0.125057
0.125051
0.125045
0.125039
0.125034
0.12503
0.125026
0.125023
0.12502
0.125017
0.125015
0.125013
0.125012
0.12501
0.125009
0.125009
0.125008
0.125007
0.125006
0.125006
0.1
0.100009
0.10002
0.100033
0.100049
0.100067
0.100088
0.100111
0.100137
0.100165
0.100197
0.100232
0.10027
0.100312
0.100359
0.10041
0.100465
0.100525
0.10059
0.100661
0.100736
0.100816
0.100902
0.100993
0.101089
0.10119
0.101296
0.101407
0.101524
0.101645
0.101772
0.101903
0.10204
0.102183
0.102331
0.102485
0.102644
0.10281
0.102983
0.103162
0.103348
0.103541
0.103742
0.10395
0.104166
0.10439
0.104622
0.104863
0.105112
0.10537
0.105637
0.105912
0.106197
0.10649
0.106792
0.107104
0.107424
0.107754
0.108092
0.10844
0.108797
0.109162
0.109537
0.109921
0.110314
0.110715
0.111126
0.111545
0.111973
0.112409
0.112853
0.113306
0.113766
0.114234
0.114709
0.115191
0.11568
0.116174
0.116675
0.11718
0.11769
0.118205
0.118723
0.119244
0.119767
0.120292
0.120819
0.121346
0.121873
0.1224
0.122925
0.123449
0.123969
0.124487
0.125001
0.12551
0.126015
0.126514
0.127007
0.127493
0.127973
0.128445
0.128909
0.129364
0.129811
0.130249
0.130678
0.131096
0.131505
0.131903
0.13229
0.132667
0.133033
0.133388
0.133732
0.134065
0.134386
0.134696
0.134994
0.135281
0.135556
0.135821
0.136073
0.136315
0.136546
0.136765
0.136973
0.137171
0.137358
0.137535
0.137701
0.137858
0.138004
0.138141
0.138268
0.138385
0.138494
0.138594
0.138685
0.138768
0.138842
0.138909
0.138968
0.139019
0.139063
0.139099
0.139129
0.139152
0.139169
0.139179
0.139183
0.139181
0.139174
0.139161
0.139143
0.139119
0.139091
0.139058
0.13902
0.138978
0.138931
0.138881
0.138826
0.138768
0.138706
0.13864
0.138572
0.1385
0.138425
0.138347
0.138267
0.138184
0.138098
0.138011
0.137921
0.137829
0.137735
0.13764
0.137542
0.137444
0.137343
0.137242
0.137139
0.137035
0.13693
0.136824
0.136717
0.13661
0.136501
0.136392
0.136283
0.136173
0.136063
0.135952
0.135841
0.135729
0.135618
0.135506
0.135395
0.135283
0.135171
0.13506
0.134948
0.134837
0.134726
0.134615
0.134504
0.134394
0.134284
0.134175
0.134066
0.133957
0.133849
0.133742
0.133635
0.133529
0.133423
0.133318
0.133213
0.13311
0.133007
0.132904
0.132803
0.132702
0.132602
0.132503
0.132404
0.132306
0.132209
0.132113
0.132018
0.131923
0.131829
0.131736
0.131644
0.131553
0.131462
0.131372
0.131283
0.131195
0.131108
0.131021
0.130936
0.130851
0.130767
0.130684
0.130601
0.13052
0.130439
0.130359
0.13028
0.130202
0.130124
0.130047
0.129971
0.129896
0.129822
0.129748
0.129676
0.129604
0.129532
0.129462
0.129392
0.129323
0.129255
0.129187
0.129121
0.129054
0.128989
0.128924
0.12886
0.128797
0.128734
0.128672
0.128611
0.12855
0.12849
0.128431
0.128372
0.128314
0.128256
0.128199
0.128143
0.128087
0.128032
0.127978
0.127924
0.127871
0.127818
0.127766
0.127714
0.127663
0.127612
0.127562
0.127513
0.127464
0.127416
0.127368
0.127321
0.127274
0.127227
0.127182
0.127136
0.127091
0.127047
0.127003
0.12696
0.126917
0.126874
0.126832
0.126791
0.126749
0.126709
0.126669
0.126629
0.126589
0.12655
0.126512
0.126474
0.126436
0.126399
0.126363
0.126326
0.12629
0.126255
0.12622
0.126185
0.126151
0.126117
0.126084
0.126051
0.126019
0.125987
0.125955
0.125924
0.125893
0.125863
0.125833
0.125804
0.125774
0.125746
0.125718
0.12569
0.125663
0.125636
0.125609
0.125583
0.125558
0.125533
0.125508
0.125484
0.125461
0.125438
0.125415
0.125393
0.125371
0.12535
0.125329
0.125309
0.12529
0.125271
0.125252
0.125234
0.125217
0.1252
0.125183
0.125167
0.125152
0.125138
0.125124
0.12511
0.125097
0.125085
0.125073
0.125062
0.125051
0.125041
0.125032
0.125023
0.125015
0.125008
0.125001
0.124994
0.124988
0.124983
0.124978
0.124974
0.12497
0.124967
0.124964
0.124961
0.124959
0.124958
0.124956
0.124955
0.124954
0.124953
0.124952
0.124951
0.124951
0.1
0.100009
0.100019
0.100033
0.100049
0.100067
0.100087
0.10011
0.100135
0.100164
0.100195
0.10023
0.100268
0.10031
0.100356
0.100406
0.100461
0.100521
0.100585
0.100655
0.10073
0.100809
0.100894
0.100984
0.10108
0.10118
0.101285
0.101396
0.101511
0.101632
0.101757
0.101888
0.102024
0.102166
0.102313
0.102466
0.102625
0.10279
0.102961
0.103139
0.103324
0.103517
0.103716
0.103924
0.104139
0.104363
0.104594
0.104834
0.105083
0.10534
0.105607
0.105882
0.106166
0.106459
0.106761
0.107072
0.107393
0.107722
0.108061
0.108409
0.108767
0.109133
0.109509
0.109894
0.110288
0.110691
0.111103
0.111524
0.111953
0.112392
0.112838
0.113293
0.113756
0.114227
0.114705
0.11519
0.115682
0.11618
0.116683
0.117193
0.117706
0.118225
0.118747
0.119272
0.119799
0.120329
0.12086
0.121391
0.121922
0.122453
0.122982
0.12351
0.124034
0.124556
0.125074
0.125587
0.126095
0.126598
0.127094
0.127584
0.128066
0.128541
0.129007
0.129466
0.129915
0.130354
0.130785
0.131205
0.131615
0.132014
0.132403
0.132781
0.133147
0.133503
0.133847
0.134179
0.1345
0.13481
0.135108
0.135395
0.135669
0.135933
0.136185
0.136426
0.136655
0.136873
0.137081
0.137277
0.137463
0.137638
0.137803
0.137958
0.138103
0.138238
0.138364
0.13848
0.138587
0.138685
0.138775
0.138856
0.138929
0.138994
0.139051
0.139101
0.139143
0.139178
0.139206
0.139228
0.139243
0.139252
0.139255
0.139251
0.139242
0.139228
0.139208
0.139184
0.139154