# vtk DataFile Version 3.0
LBM Fluid Grid
ASCII
DATASET STRUCTURED_POINTS
DIMENSIONS 400 150 1
ORIGIN 0 0 0
SPACING 1 1 1
POINT_DATA 60000
SCALARS VelocityMagnitude double 1
LOOKUP_TABLE default
0.1
0.0999684
0.0999568
0.0999665
0.0999964
0.100044
0.100107
0.100182
0.100265
0.100353
0.100442
0.10053
0.100613
0.100689
0.100758
0.100819
0.100871
0.100917
0.100957
0.100994
0.10103
0.101068
0.101109
0.101158
0.101215
0.101283
0.101362
0.101454
0.101559
0.101678
0.101809
0.101953
0.102109
0.102275
0.102451
0.102635
0.102826
0.103023
0.103225
0.10343
0.103638
0.103849
0.104062
0.104277
0.104494
0.104715
0.104938
0.105166
0.1054
0.105639
0.105886
0.106141
0.106406
0.10668
0.106965
0.107261
0.107568
0.107886
0.108217
0.108558
0.10891
0.109274
0.109647
0.110029
0.110421
0.110821
0.111228
0.111643
0.112064
0.112492
0.112925
0.113363
0.113807
0.114255
0.114708
0.115166
0.115628
0.116095
0.116566
0.117042
0.117522
0.118006
0.118494
0.118986
0.119482
0.119982
0.120484
0.120989
0.121495
0.122004
0.122512
0.123021
0.123529
0.124036
0.12454
0.125042
0.125539
0.126031
0.126519
0.127
0.127474
0.12794
0.128399
0.128849
0.12929
0.129722
0.130144
0.130556
0.130957
0.131349
0.13173
0.1321
0.13246
0.13281
0.133149
0.133478
0.133797
0.134105
0.134403
0.134691
0.134969
0.135237
0.135495
0.135744
0.135982
0.136211
0.13643
0.136639
0.136838
0.137027
0.137206
0.137376
0.137536
0.137685
0.137825
0.137955
0.138076
0.138187
0.138288
0.13838
0.138462
0.138536
0.1386
0.138656
0.138704
0.138744
0.138776
0.1388
0.138817
0.138828
0.138831
0.138829
0.138821
0.138807
0.138787
0.138763
0.138734
0.1387
0.138663
0.138621
0.138575
0.138526
0.138473
0.138416
0.138357
0.138294
0.138229
0.138161
0.138089
0.138016
0.137939
0.13786
0.137779
0.137695
0.137609
0.13752
0.13743
0.137338
0.137243
0.137147
0.13705
0.136951
0.13685
0.136748
0.136645
0.136541
0.136436
0.13633
0.136223
0.136116
0.136008
0.1359
0.135792
0.135683
0.135574
0.135465
0.135355
0.135246
0.135136
0.135026
0.134916
0.134806
0.134695
0.134585
0.134474
0.134363
0.134252
0.13414
0.134028
0.133916
0.133803
0.133691
0.133578
0.133465
0.133351
0.133238
0.133124
0.13301
0.132896
0.132783
0.132669
0.132555
0.132442
0.132329
0.132217
0.132104
0.131993
0.131881
0.131771
0.13166
0.131551
0.131442
0.131333
0.131225
0.131118
0.131011
0.130905
0.130799
0.130694
0.13059
0.130486
0.130382
0.130279
0.130177
0.130074
0.129972
0.129871
0.12977
0.129669
0.129569
0.129469
0.129369
0.129269
0.12917
0.129072
0.128973
0.128875
0.128778
0.12868
0.128583
0.128486
0.12839
0.128294
0.128198
0.128102
0.128006
0.127911
0.127815
0.12772
0.127624
0.127529
0.127433
0.127338
0.127242
0.127146
0.127049
0.126953
0.126856
0.126758
0.126661
0.126562
0.126464
0.126365
0.126266
0.126166
0.126066
0.125965
0.125864
0.125763
0.125661
0.125559
0.125457
0.125354
0.125252
0.125149
0.125045
0.124942
0.124839
0.124735
0.124631
0.124528
0.124424
0.12432
0.124216
0.124112
0.124008
0.123904
0.1238
0.123697
0.123593
0.123489
0.123385
0.123282
0.123178
0.123075
0.122972
0.122868
0.122765
0.122662
0.122559
0.122457
0.122354
0.122252
0.122149
0.122047
0.121946
0.121844
0.121743
0.121642
0.121541
0.12144
0.12134
0.12124
0.121141
0.121042
0.120943
0.120844
0.120746
0.120649
0.120552
0.120455
0.120359
0.120263
0.120168
0.120074
0.11998
0.119887
0.119795
0.119703
0.119612
0.119522
0.119433
0.119344
0.119256
0.11917
0.119084
0.118999
0.118915
0.118832
0.11875
0.118669
0.118589
0.118511
0.118433
0.118357
0.118282
0.118208
0.118135
0.118064
0.117994
0.117925
0.117858
0.117792
0.117728
0.117666
0.117605
0.117546
0.117488
0.117432
0.117379
0.117327
0.117277
0.11723
0.117185
0.117142
0.117101
0.117063
0.117027
0.116994
0.116963
0.116936
0.116911
0.116888
0.116869
0.116853
0.116839
0.116829
0.116821
0.116816
0.116816
0.1
0.0999685
0.099957
0.0999667
0.0999966
0.100045
0.100108
0.100182
0.100266
0.100353
0.100442
0.10053
0.100612
0.100689
0.100758
0.100818
0.100871
0.100917
0.100957
0.100994
0.10103
0.101067
0.101109
0.101157
0.101215
0.101282
0.101361
0.101453
0.101559
0.101677
0.101809
0.101953
0.102108
0.102274
0.10245
0.102634
0.102825
0.103022
0.103223
0.103429
0.103637
0.103847
0.10406
0.104275
0.104492
0.104712
0.104936
0.105164
0.105398
0.105637
0.105884
0.106139
0.106404
0.106678
0.106963
0.107258
0.107566
0.107884
0.108215
0.108556
0.108909
0.109272
0.109645
0.110028
0.110419
0.110819
0.111227
0.111642
0.112063
0.112491
0.112924
0.113363
0.113806
0.114255
0.114708
0.115166
0.115628
0.116095
0.116567
0.117043
0.117523
0.118007
0.118496
0.118988
0.119485
0.119984
0.120487
0.120992
0.121499
0.122007
0.122517
0.123026
0.123534
0.124041
0.124546
0.125047
0.125544
0.126037
0.126525
0.127006
0.12748
0.127947
0.128406
0.128856
0.129297
0.129729
0.130151
0.130563
0.130965
0.131356
0.131737
0.132108
0.132468
0.132818
0.133157
0.133486
0.133804
0.134113
0.134411
0.134699
0.134977
0.135245
0.135503
0.135751
0.13599
0.136218
0.136437
0.136646
0.136845
0.137034
0.137213
0.137383
0.137542
0.137692
0.137832
0.137962
0.138082
0.138193
0.138294
0.138385
0.138468
0.138541
0.138606
0.138662
0.13871
0.138749
0.138781
0.138805
0.138822
0.138833
0.138836
0.138834
0.138825
0.138811
0.138792
0.138767
0.138738
0.138705
0.138667
0.138625
0.138579
0.138529
0.138476
0.13842
0.138361
0.138298
0.138232
0.138164
0.138093
0.138019
0.137942
0.137863
0.137782
0.137698
0.137612
0.137523
0.137433
0.13734
0.137246
0.13715
0.137052
0.136953
0.136852
0.13675
0.136647
0.136543
0.136438
0.136332
0.136225
0.136118
0.13601
0.135902
0.135794
0.135685
0.135576
0.135467
0.135357
0.135248
0.135138
0.135028
0.134918
0.134808
0.134697
0.134586
0.134476
0.134364
0.134253
0.134142
0.13403
0.133917
0.133805
0.133692
0.133579
0.133466
0.133353
0.133239
0.133125
0.133011
0.132898
0.132784
0.13267
0.132557
0.132444
0.132331
0.132218
0.132106
0.131994
0.131883
0.131772
0.131662
0.131552
0.131443
0.131334
0.131226
0.131119
0.131012
0.130906
0.130801
0.130696
0.130591
0.130487
0.130384
0.13028
0.130178
0.130075
0.129974
0.129872
0.129771
0.12967
0.12957
0.12947
0.12937
0.129271
0.129172
0.129073
0.128974
0.128876
0.128779
0.128681
0.128584
0.128487
0.128391
0.128295
0.128199
0.128103
0.128007
0.127912
0.127816
0.127721
0.127625
0.12753
0.127434
0.127338
0.127242
0.127146
0.12705
0.126953
0.126856
0.126759
0.126661
0.126563
0.126465
0.126366
0.126266
0.126166
0.126066
0.125966
0.125865
0.125763
0.125662
0.12556
0.125457
0.125355
0.125252
0.125149
0.125046
0.124942
0.124839
0.124735
0.124632
0.124528
0.124424
0.12432
0.124216
0.124112
0.124008
0.123904
0.123801
0.123697
0.123593
0.123489
0.123385
0.123282
0.123178
0.123075
0.122971
0.122868
0.122765
0.122662
0.122559
0.122456
0.122354
0.122251
0.122149
0.122047
0.121945
0.121844
0.121742
0.121641
0.12154
0.12144
0.12134
0.12124
0.12114
0.121041
0.120942
0.120844
0.120745
0.120648
0.120551
0.120454
0.120358
0.120262
0.120167
0.120073
0.119979
0.119886
0.119794
0.119702
0.119611
0.119521
0.119431
0.119343
0.119255
0.119168
0.119082
0.118997
0.118913
0.11883
0.118748
0.118667
0.118588
0.118509
0.118431
0.118355
0.11828
0.118206
0.118133
0.118062
0.117992
0.117923
0.117856
0.11779
0.117726
0.117663
0.117602
0.117543
0.117486
0.11743
0.117376
0.117325
0.117275
0.117227
0.117182
0.117139
0.117098
0.11706
0.117024
0.116991
0.116961
0.116933
0.116908
0.116886
0.116866
0.11685
0.116836
0.116826
0.116818
0.116813
0.116813
0.1
0.0999687
0.0999573
0.0999672
0.0999971
0.100045
0.100108
0.100183
0.100266
0.100353
0.100442
0.100529
0.100612
0.100688
0.100757
0.100817
0.10087
0.100915
0.100955
0.100992
0.101028
0.101066
0.101108
0.101156
0.101213
0.101281
0.10136
0.101452
0.101557
0.101675
0.101806
0.10195
0.102105
0.102271
0.102447
0.102631
0.102821
0.103018
0.103219
0.103424
0.103632
0.103842
0.104055
0.104269
0.104486
0.104706
0.10493
0.105158
0.105391
0.10563
0.105877
0.106132
0.106397
0.106671
0.106956
0.107252
0.107559
0.107878
0.108208
0.10855
0.108903
0.109266
0.109639
0.110022
0.110414
0.110815
0.111223
0.111638
0.11206
0.112487
0.112921
0.11336
0.113804
0.114254
0.114707
0.115166
0.115629
0.116097
0.116569
0.117046
0.117527
0.118012
0.118501
0.118995
0.119492
0.119992
0.120496
0.121002
0.12151
0.122019
0.122529
0.123039
0.123548
0.124056
0.124561
0.125063
0.125561
0.126055
0.126543
0.127024
0.127499
0.127966
0.128426
0.128876
0.129318
0.12975
0.130172
0.130585
0.130987
0.131379
0.13176
0.132131
0.132491
0.132841
0.13318
0.133509
0.133827
0.134136
0.134434
0.134722
0.135
0.135268
0.135526
0.135774
0.136012
0.13624
0.136459
0.136667
0.136866
0.137055
0.137234
0.137403
0.137562
0.137712
0.137851
0.137981
0.138101
0.138211
0.138312
0.138403
0.138485
0.138559
0.138623
0.138678
0.138726
0.138765
0.138797
0.138821
0.138837
0.138847
0.138851
0.138848
0.138839
0.138825
0.138805
0.138781
0.138751
0.138717
0.138679
0.138637
0.138591
0.138541
0.138488
0.138431
0.138372
0.138309
0.138243
0.138174
0.138103
0.138029
0.137952
0.137872
0.137791
0.137707
0.13762
0.137532
0.137441
0.137349
0.137254
0.137158
0.13706
0.136961
0.13686
0.136758
0.136654
0.13655
0.136445
0.136339
0.136232
0.136125
0.136017
0.135909
0.1358
0.135691
0.135582
0.135472
0.135363
0.135253
0.135143
0.135033
0.134923
0.134813
0.134702
0.134591
0.134481
0.134369
0.134258
0.134146
0.134034
0.133922
0.133809
0.133697
0.133584
0.13347
0.133357
0.133243
0.133129
0.133016
0.132902
0.132788
0.132674
0.132561
0.132448
0.132335
0.132222
0.13211
0.131998
0.131887
0.131776
0.131666
0.131556
0.131447
0.131338
0.13123
0.131123
0.131016
0.13091
0.130804
0.130699
0.130595
0.130491
0.130387
0.130284
0.130181
0.130079
0.129977
0.129875
0.129774
0.129673
0.129573
0.129473
0.129373
0.129274
0.129175
0.129076
0.128977
0.128879
0.128782
0.128684
0.128587
0.12849
0.128394
0.128297
0.128201
0.128105
0.12801
0.127914
0.127819
0.127723
0.127628
0.127532
0.127436
0.127341
0.127245
0.127149
0.127052
0.126955
0.126858
0.126761
0.126663
0.126565
0.126466
0.126367
0.126268
0.126168
0.126068
0.125967
0.125866
0.125765
0.125663
0.125561
0.125459
0.125356
0.125253
0.12515
0.125047
0.124943
0.12484
0.124736
0.124632
0.124529
0.124425
0.124321
0.124217
0.124113
0.124009
0.123905
0.123801
0.123697
0.123593
0.123489
0.123385
0.123282
0.123178
0.123074
0.122971
0.122868
0.122764
0.122661
0.122558
0.122455
0.122353
0.12225
0.122148
0.122046
0.121944
0.121842
0.121741
0.12164
0.121539
0.121438
0.121338
0.121238
0.121138
0.121039
0.12094
0.120841
0.120743
0.120645
0.120548
0.120451
0.120355
0.120259
0.120164
0.12007
0.119976
0.119882
0.11979
0.119698
0.119607
0.119517
0.119427
0.119338
0.119251
0.119164
0.119078
0.118993
0.118908
0.118825
0.118743
0.118662
0.118582
0.118504
0.118426
0.118349
0.118274
0.1182
0.118127
0.118056
0.117986
0.117917
0.11785
0.117784
0.117719
0.117657
0.117596
0.117536
0.117479
0.117423
0.117369
0.117317
0.117267
0.11722
0.117174
0.117131
0.11709
0.117052
0.117016
0.116983
0.116952
0.116925
0.116899
0.116877
0.116858
0.116841
0.116828
0.116817
0.116809
0.116804
0.116804
0.1
0.099969
0.0999579
0.0999679
0.099998
0.100046
0.100109
0.100184
0.100266
0.100354
0.100442
0.100529
0.100611
0.100687
0.100755
0.100816
0.100868
0.100913
0.100953
0.10099
0.101026
0.101063
0.101105
0.101154
0.101211
0.101278
0.101357
0.101449
0.101554
0.101672
0.101803
0.101946
0.102101
0.102267
0.102442
0.102625
0.102815
0.103011
0.103212
0.103416
0.103623
0.103833
0.104045
0.104259
0.104476
0.104696
0.104919
0.105147
0.10538
0.105619
0.105866
0.106121
0.106386
0.10666
0.106945
0.107241
0.107548
0.107867
0.108198
0.10854
0.108893
0.109257
0.10963
0.110014
0.110406
0.110807
0.111215
0.111631
0.112053
0.112482
0.112916
0.113356
0.113801
0.114251
0.114706
0.115166
0.11563
0.116099
0.116572
0.11705
0.117533
0.11802
0.11851
0.119005
0.119504
0.120006
0.120511
0.121018
0.121528
0.122038
0.12255
0.123061
0.123571
0.12408
0.124587
0.12509
0.125589
0.126084
0.126573
0.127055
0.127531
0.127999
0.128459
0.12891
0.129353
0.129785
0.130208
0.130621
0.131024
0.131416
0.131797
0.132169
0.132529
0.132879
0.133218
0.133547
0.133866
0.134174
0.134472
0.13476
0.135038
0.135306
0.135563
0.135811
0.136049
0.136277
0.136495
0.136703
0.136901
0.13709
0.137268
0.137437
0.137596
0.137744
0.137883
0.138012
0.138132
0.138242
0.138342
0.138433
0.138514
0.138587
0.138651
0.138706
0.138753
0.138792
0.138823
0.138846
0.138862
0.138872
0.138875
0.138872
0.138862
0.138848
0.138828
0.138803
0.138773
0.138738
0.1387
0.138657
0.138611
0.13856
0.138507
0.13845
0.13839
0.138326
0.13826
0.138191
0.138119
0.138045
0.137968
0.137888
0.137806
0.137721
0.137635
0.137546
0.137455
0.137362
0.137267
0.137171
0.137073
0.136973
0.136872
0.13677
0.136666
0.136562
0.136456
0.13635
0.136243
0.136135
0.136027
0.135919
0.13581
0.135701
0.135592
0.135482
0.135372
0.135262
0.135152
0.135042
0.134932
0.134821
0.134711
0.1346
0.134489
0.134377
0.134266
0.134154
0.134042
0.13393
0.133817
0.133704
0.133591
0.133478
0.133364
0.13325
0.133136
0.133023
0.132909
0.132795
0.132681
0.132568
0.132454
0.132341
0.132229
0.132116
0.132004
0.131893
0.131782
0.131672
0.131562
0.131453
0.131344
0.131237
0.131129
0.131022
0.130916
0.13081
0.130705
0.130601
0.130497
0.130393
0.13029
0.130187
0.130085
0.129983
0.129881
0.12978
0.129679
0.129578
0.129478
0.129378
0.129279
0.12918
0.129081
0.128982
0.128884
0.128786
0.128689
0.128592
0.128495
0.128398
0.128302
0.128206
0.12811
0.128014
0.127918
0.127823
0.127727
0.127632
0.127536
0.12744
0.127344
0.127248
0.127152
0.127056
0.126959
0.126862
0.126764
0.126666
0.126568
0.126469
0.12637
0.126271
0.126171
0.12607
0.12597
0.125869
0.125767
0.125665
0.125563
0.125461
0.125358
0.125255
0.125152
0.125048
0.124945
0.124841
0.124737
0.124634
0.12453
0.124426
0.124322
0.124217
0.124113
0.124009
0.123905
0.123801
0.123697
0.123593
0.123489
0.123385
0.123281
0.123177
0.123074
0.12297
0.122867
0.122763
0.12266
0.122557
0.122454
0.122351
0.122248
0.122146
0.122044
0.121941
0.12184
0.121738
0.121637
0.121536
0.121435
0.121334
0.121234
0.121134
0.121035
0.120936
0.120837
0.120738
0.120641
0.120543
0.120446
0.12035
0.120254
0.120159
0.120064
0.11997
0.119876
0.119784
0.119692
0.1196
0.11951
0.11942
0.119331
0.119243
0.119156
0.11907
0.118985
0.1189
0.118817
0.118735
0.118654
0.118573
0.118494
0.118417
0.11834
0.118264
0.11819
0.118117
0.118045
0.117975
0.117906
0.117839
0.117773
0.117708
0.117645
0.117584
0.117524
0.117467
0.117411
0.117357
0.117305
0.117255
0.117207
0.117161
0.117118
0.117077
0.117039
0.117003
0.116969
0.116939
0.116911
0.116885
0.116863
0.116844
0.116827
0.116813
0.116803
0.116795
0.11679
0.11679
0.1
0.0999695
0.0999587
0.0999691
0.0999993
0.100047
0.10011
0.100185
0.100267
0.100354
0.100442
0.100528
0.10061
0.100685
0.100753
0.100813
0.100865
0.10091
0.10095
0.100987
0.101023
0.10106
0.101102
0.10115
0.101207
0.101274
0.101353
0.101445
0.101549
0.101667
0.101797
0.10194
0.102095
0.10226
0.102434
0.102617
0.102806
0.103001
0.103201
0.103405
0.103612
0.103821
0.104032
0.104246
0.104462
0.104681
0.104904
0.105131
0.105364
0.105604
0.10585
0.106105
0.10637
0.106644
0.106929
0.107226
0.107533
0.107853
0.108184
0.108526
0.108879
0.109243
0.109618
0.110001
0.110394
0.110796
0.111205
0.111622
0.112045
0.112474
0.11291
0.113351
0.113797
0.114248
0.114705
0.115166
0.115632
0.116102
0.116577
0.117057
0.117541
0.11803
0.118523
0.11902
0.119521
0.120025
0.120532
0.121041
0.121552
0.122065
0.122578
0.123092
0.123604
0.124115
0.124623
0.125128
0.125628
0.126124
0.126615
0.127099
0.127576
0.128045
0.128506
0.128958
0.129401
0.129835
0.130259
0.130672
0.131075
0.131468
0.13185
0.132222
0.132583
0.132933
0.133272
0.133601
0.13392
0.134228
0.134526
0.134814
0.135091
0.135359
0.135616
0.135863
0.136101
0.136328
0.136546
0.136753
0.136951
0.137139
0.137316
0.137484
0.137642
0.13779
0.137928
0.138057
0.138175
0.138284
0.138384
0.138474
0.138555
0.138627
0.13869
0.138744
0.138791
0.138829
0.138859
0.138882
0.138898
0.138906
0.138909
0.138905
0.138895
0.13888
0.138859
0.138833
0.138803
0.138768
0.138729
0.138685
0.138638
0.138587
0.138533
0.138476
0.138415
0.138351
0.138284
0.138215
0.138142
0.138067
0.13799
0.13791
0.137827
0.137742
0.137655
0.137566
0.137474
0.137381
0.137286
0.137189
0.137091
0.13699
0.136889
0.136786
0.136683
0.136578
0.136472
0.136365
0.136258
0.13615
0.136042
0.135933
0.135824
0.135715
0.135605
0.135495
0.135385
0.135275
0.135165
0.135055
0.134944
0.134833
0.134722
0.134611
0.1345
0.134389
0.134277
0.134165
0.134053
0.13394
0.133827
0.133714
0.133601
0.133488
0.133374
0.13326
0.133146
0.133032
0.132918
0.132804
0.132691
0.132577
0.132464
0.132351
0.132238
0.132125
0.132014
0.131902
0.131791
0.131681
0.131571
0.131462
0.131353
0.131245
0.131138
0.131031
0.130924
0.130819
0.130714
0.130609
0.130505
0.130401
0.130298
0.130195
0.130092
0.12999
0.129889
0.129787
0.129686
0.129586
0.129485
0.129385
0.129286
0.129187
0.129088
0.128989
0.128891
0.128793
0.128695
0.128598
0.128501
0.128404
0.128308
0.128212
0.128116
0.12802
0.127924
0.127828
0.127732
0.127637
0.127541
0.127445
0.127349
0.127253
0.127157
0.12706
0.126963
0.126866
0.126768
0.12667
0.126572
0.126473
0.126374
0.126274
0.126174
0.126074
0.125973
0.125872
0.12577
0.125668
0.125566
0.125463
0.12536
0.125257
0.125154
0.12505
0.124947
0.124843
0.124739
0.124635
0.124531
0.124427
0.124322
0.124218
0.124114
0.12401
0.123905
0.123801
0.123697
0.123593
0.123488
0.123384
0.12328
0.123176
0.123072
0.122969
0.122865
0.122761
0.122658
0.122554
0.122451
0.122348
0.122245
0.122143
0.12204
0.121938
0.121836
0.121734
0.121632
0.121531
0.12143
0.121329
0.121229
0.121129
0.121029
0.12093
0.120831
0.120732
0.120634
0.120536
0.120439
0.120342
0.120246
0.120151
0.120056
0.119961
0.119867
0.119774
0.119682
0.119591
0.1195
0.11941
0.119321
0.119232
0.119145
0.119059
0.118973
0.118888
0.118805
0.118722
0.118641
0.118561
0.118481
0.118403
0.118326
0.11825
0.118176
0.118103
0.118031
0.11796
0.117891
0.117823
0.117757
0.117692
0.117629
0.117567
0.117508
0.117449
0.117393
0.117339
0.117287
0.117237
0.117189
0.117143
0.117099
0.117058
0.117019
0.116983
0.11695
0.116919
0.116891
0.116865
0.116843
0.116823
0.116807
0.116793
0.116782
0.116775
0.116769
0.116769
0.1
0.0999701
0.0999598
0.0999705
0.100001
0.100049
0.100112
0.100186
0.100268
0.100354
0.100442
0.100527
0.100608
0.100683
0.10075
0.10081
0.100862
0.100907
0.100946
0.100983
0.101019
0.101056
0.101098
0.101146
0.101203
0.10127
0.101348
0.101439
0.101543
0.10166
0.10179
0.101933
0.102087
0.102251
0.102424
0.102606
0.102795
0.102989
0.103188
0.103391
0.103597
0.103805
0.104015
0.104228
0.104444
0.104662
0.104885
0.105112
0.105344
0.105583
0.10583
0.106085
0.106349
0.106624
0.106909
0.107206
0.107514
0.107833
0.108165
0.108508
0.108861
0.109226
0.109601
0.109986
0.110379
0.110781
0.111192
0.111609
0.112034
0.112464
0.112901
0.113343
0.113791
0.114244
0.114702
0.115165
0.115633
0.116106
0.116584
0.117066
0.117552
0.118044
0.118539
0.119039
0.119542
0.120049
0.120558
0.12107
0.121584
0.1221
0.122616
0.123131
0.123646
0.124159
0.124669
0.125176
0.125679
0.126177
0.126669
0.127155
0.127633
0.128104
0.128566
0.12902
0.129464
0.129899
0.130323
0.130738
0.131142
0.131535
0.131918
0.13229
0.132651
0.133002
0.133342
0.133671
0.13399
0.134298
0.134595
0.134883
0.13516
0.135427
0.135684
0.135931
0.136168
0.136394
0.136611
0.136818
0.137015
0.137201
0.137378
0.137545
0.137702
0.137849
0.137986
0.138114
0.138231
0.13834
0.138438
0.138527
0.138607
0.138678
0.13874
0.138794
0.138839
0.138876
0.138906
0.138928
0.138943
0.138951
0.138952
0.138947
0.138937
0.138921
0.138899
0.138872
0.138841
0.138806
0.138766
0.138721
0.138674
0.138622
0.138567
0.138509
0.138447
0.138383
0.138315
0.138245
0.138172
0.138096
0.138018
0.137937
0.137854
0.137769
0.137681
0.137591
0.137499
0.137405
0.13731
0.137212
0.137113
0.137013
0.136911
0.136808
0.136704
0.136598
0.136492
0.136385
0.136278
0.13617
0.136061
0.135952
0.135842
0.135733
0.135623
0.135513
0.135402
0.135292
0.135181
0.135071
0.13496
0.134849
0.134737
0.134626
0.134515
0.134403
0.134291
0.134179
0.134066
0.133953
0.133841
0.133727
0.133614
0.1335
0.133386
0.133273
0.133158
0.133044
0.13293
0.132816
0.132702
0.132589
0.132475
0.132362
0.132249
0.132137
0.132025
0.131913
0.131802
0.131692
0.131582
0.131473
0.131364
0.131256
0.131148
0.131041
0.130935
0.130829
0.130724
0.130619
0.130515
0.130411
0.130307
0.130204
0.130102
0.13
0.129898
0.129796
0.129695
0.129595
0.129494
0.129394
0.129295
0.129195
0.129096
0.128997
0.128899
0.128801
0.128703
0.128606
0.128509
0.128412
0.128315
0.128219
0.128123
0.128027
0.127931
0.127835
0.127739
0.127643
0.127547
0.127451
0.127355
0.127259
0.127162
0.127065
0.126968
0.126871
0.126773
0.126675
0.126576
0.126477
0.126378
0.126278
0.126178
0.126077
0.125976
0.125875
0.125773
0.125671
0.125569
0.125466
0.125363
0.12526
0.125156
0.125052
0.124949
0.124845
0.12474
0.124636
0.124532
0.124427
0.124323
0.124219
0.124114
0.12401
0.123905
0.123801
0.123696
0.123592
0.123487
0.123383
0.123279
0.123174
0.12307
0.122966
0.122862
0.122758
0.122654
0.122551
0.122447
0.122344
0.122241
0.122138
0.122035
0.121933
0.12183
0.121728
0.121626
0.121525
0.121423
0.121322
0.121221
0.121121
0.121021
0.120921
0.120822
0.120723
0.120625
0.120527
0.120429
0.120332
0.120236
0.12014
0.120044
0.11995
0.119856
0.119762
0.11967
0.119578
0.119487
0.119396
0.119307
0.119218
0.11913
0.119044
0.118958
0.118873
0.118789
0.118706
0.118624
0.118544
0.118464
0.118385
0.118308
0.118232
0.118157
0.118084
0.118011
0.11794
0.117871
0.117803
0.117736
0.117671
0.117607
0.117546
0.117485
0.117427
0.117371
0.117316
0.117263
0.117213
0.117165
0.117119
0.117075
0.117033
0.116994
0.116958
0.116924
0.116893
0.116865
0.116839
0.116817
0.116797
0.11678
0.116766
0.116756
0.116748
0.116743
0.116743
0.1
0.0999708
0.0999611
0.0999722
0.100003
0.100051
0.100114
0.100187
0.100269
0.100354
0.100441
0.100526
0.100606
0.10068
0.100747
0.100806
0.100857
0.100902
0.100941
0.100978
0.101014
0.101051
0.101093
0.101141
0.101197
0.101264
0.101342
0.101433
0.101536
0.101653
0.101782
0.101924
0.102077
0.10224
0.102412
0.102593
0.102781
0.102974
0.103172
0.103373
0.103578
0.103785
0.103995
0.104207
0.104421
0.104639
0.104861
0.105088
0.10532
0.105558
0.105805
0.10606
0.106324
0.106599
0.106885
0.107181
0.10749
0.10781
0.108142
0.108485
0.10884
0.109205
0.109581
0.109966
0.110361
0.110764
0.111175
0.111594
0.11202
0.112452
0.11289
0.113334
0.113784
0.114239
0.114699
0.115165
0.115635
0.116111
0.116591
0.117076
0.117566
0.11806
0.118559
0.119062
0.119568
0.120078
0.120591
0.121106
0.121624
0.122142
0.122661
0.123179
0.123697
0.124213
0.124726
0.125235
0.125741
0.126241
0.126735
0.127223
0.127703
0.128176
0.12864
0.129095
0.129541
0.129977
0.130403
0.130818
0.131223
0.131618
0.132001
0.132374
0.132736
0.133086
0.133427
0.133756
0.134075
0.134383
0.13468
0.134967
0.135244
0.135511
0.135767
0.136013
0.136249
0.136475
0.136691
0.136897
0.137092
0.137278
0.137454
0.13762
0.137775
0.137921
0.138057
0.138183
0.1383
0.138407
0.138504
0.138592
0.138671
0.13874
0.138801
0.138854
0.138898
0.138934
0.138963
0.138984
0.138997
0.139004
0.139005
0.138999
0.138988
0.13897
0.138948
0.13892
0.138888
0.138852
0.138811
0.138766
0.138717
0.138664
0.138608
0.138549
0.138487
0.138421
0.138353
0.138282
0.138208
0.138132
0.138052
0.137971
0.137887
0.137801
0.137712
0.137622
0.137529
0.137435
0.137339
0.137241
0.137141
0.13704
0.136938
0.136834
0.136729
0.136624
0.136517
0.13641
0.136301
0.136193
0.136084
0.135974
0.135864
0.135754
0.135644
0.135533
0.135423
0.135312
0.135201
0.13509
0.134979
0.134867
0.134756
0.134644
0.134532
0.13442
0.134308
0.134195
0.134083
0.13397
0.133856
0.133743
0.133629
0.133516
0.133402
0.133287
0.133173
0.133059
0.132945
0.132831
0.132717
0.132603
0.132489
0.132376
0.132263
0.132151
0.132038
0.131927
0.131816
0.131705
0.131595
0.131486
0.131377
0.131269
0.131161
0.131054
0.130947
0.130841
0.130736
0.130631
0.130527
0.130423
0.130319
0.130216
0.130113
0.130011
0.129909
0.129807
0.129706
0.129605
0.129505
0.129404
0.129305
0.129205
0.129106
0.129007
0.128908
0.12881
0.128712
0.128615
0.128517
0.12842
0.128324
0.128227
0.128131
0.128034
0.127938
0.127842
0.127746
0.12765
0.127554
0.127458
0.127362
0.127265
0.127168
0.127071
0.126974
0.126876
0.126778
0.12668
0.126581
0.126482
0.126382
0.126282
0.126182
0.126081
0.12598
0.125878
0.125776
0.125674
0.125571
0.125468
0.125365
0.125262
0.125158
0.125054
0.12495
0.124846
0.124741
0.124637
0.124532
0.124428
0.124323
0.124218
0.124113
0.124009
0.123904
0.123799
0.123694
0.123589
0.123485
0.12338
0.123276
0.123171
0.123066
0.122962
0.122858
0.122754
0.12265
0.122546
0.122442
0.122338
0.122235
0.122131
0.122028
0.121925
0.121822
0.12172
0.121618
0.121516
0.121414
0.121313
0.121212
0.121111
0.12101
0.12091
0.120811
0.120711
0.120612
0.120514
0.120416
0.120319
0.120222
0.120126
0.12003
0.119935
0.11984
0.119747
0.119653
0.119561
0.11947
0.119379
0.119289
0.1192
0.119112
0.119025
0.118938
0.118853
0.118769
0.118685
0.118603
0.118522
0.118442
0.118363
0.118285
0.118209
0.118134
0.11806
0.117987
0.117915
0.117845
0.117777
0.11771
0.117644
0.11758
0.117518
0.117458
0.117399
0.117342
0.117287
0.117234
0.117183
0.117135
0.117088
0.117044
0.117002
0.116963
0.116927
0.116892
0.116861
0.116833
0.116807
0.116784
0.116764
0.116747
0.116733
0.116722
0.116715
0.116709
0.116709
0.1
0.0999716
0.0999626
0.0999741
0.100005
0.100053
0.100116
0.100189
0.10027
0.100355
0.100441
0.100524
0.100604
0.100677
0.100743
0.100801
0.100852
0.100896
0.100936
0.100972
0.101008
0.101045
0.101086
0.101134
0.10119
0.101257
0.101335
0.101425
0.101528
0.101644
0.101772
0.101913
0.102065
0.102227
0.102398
0.102578
0.102764
0.102956
0.103152
0.103353
0.103556
0.103762
0.10397
0.104181
0.104395
0.104612
0.104833
0.105059
0.105291
0.105529
0.105775
0.10603
0.106295
0.106569
0.106855
0.107152
0.107461
0.107782
0.108114
0.108458
0.108813
0.10918
0.109556
0.109943
0.110338
0.110743
0.111155
0.111575
0.112003
0.112437
0.112877
0.113323
0.113775
0.114233
0.114696
0.115164
0.115637
0.116116
0.116599
0.117088
0.117581
0.118079
0.118582
0.119088
0.119599
0.120113
0.12063
0.121149
0.12167
0.122192
0.122714
0.123237
0.123758
0.124277
0.124793
0.125306
0.125814
0.126317
0.126814
0.127304
0.127787
0.128261
0.128728
0.129185
0.129632
0.13007
0.130497
0.130914
0.13132
0.131715
0.1321
0.132473
0.132835
0.133187
0.133527
0.133857
0.134175
0.134483
0.134781
0.135067
0.135344
0.135609
0.135865
0.13611
0.136345
0.13657
0.136785
0.13699
0.137184
0.137369
0.137543
0.137707
0.137862
0.138006
0.138141
0.138266
0.138381
0.138486
0.138582
0.138668
0.138746
0.138814
0.138874
0.138925
0.138968
0.139003
0.13903
0.139049
0.139062
0.139068
0.139067
0.13906
0.139047
0.139029
0.139006
0.138977
0.138944
0.138906
0.138864
0.138818
0.138768
0.138714
0.138657
0.138597
0.138533
0.138467
0.138398
0.138325
0.13825
0.138173
0.138093
0.13801
0.137926
0.137839
0.137749
0.137658
0.137565
0.137469
0.137372
0.137274
0.137173
0.137072
0.136969
0.136865
0.136759
0.136653
0.136546
0.136438
0.136329
0.13622
0.13611
0.136
0.13589
0.135779
0.135669
0.135558
0.135446
0.135335
0.135224
0.135112
0.135
0.134889
0.134777
0.134665
0.134553
0.13444
0.134327
0.134215
0.134102
0.133988
0.133875
0.133761
0.133647
0.133533
0.133419
0.133305
0.13319
0.133076
0.132961
0.132847
0.132733
0.132619
0.132505
0.132392
0.132279
0.132166
0.132054
0.131942
0.131831
0.13172
0.13161
0.131501
0.131392
0.131283
0.131175
0.131068
0.130961
0.130855
0.13075
0.130645
0.13054
0.130436
0.130332
0.130229
0.130126
0.130023
0.129921
0.129819
0.129718
0.129617
0.129516
0.129416
0.129316
0.129216
0.129116
0.129017
0.128919
0.12882
0.128722
0.128624
0.128527
0.12843
0.128333
0.128236
0.128139
0.128043
0.127946
0.12785
0.127754
0.127657
0.127561
0.127465
0.127368
0.127271
0.127174
0.127077
0.126979
0.126882
0.126783
0.126685
0.126586
0.126486
0.126386
0.126286
0.126185
0.126084
0.125983
0.125881
0.125779
0.125676
0.125573
0.12547
0.125367
0.125263
0.125159
0.125055
0.12495
0.124846
0.124741
0.124636
0.124532
0.124427
0.124322
0.124216
0.124111
0.124006
0.123901
0.123796
0.123691
0.123586
0.123481
0.123376
0.123271
0.123166
0.123061
0.122956
0.122851
0.122747
0.122642
0.122538
0.122434
0.12233
0.122226
0.122122
0.122019
0.121915
0.121812
0.121709
0.121607
0.121504
0.121402
0.1213
0.121199
0.121097
0.120997
0.120896
0.120796
0.120696
0.120597
0.120498
0.1204
0.120302
0.120204
0.120108
0.120011
0.119916
0.119821
0.119727
0.119633
0.11954
0.119448
0.119357
0.119267
0.119177
0.119089
0.119001
0.118914
0.118828
0.118744
0.11866
0.118577
0.118495
0.118415
0.118336
0.118257
0.11818
0.118105
0.11803
0.117957
0.117885
0.117815
0.117745
0.117678
0.117612
0.117548
0.117485
0.117424
0.117365
0.117307
0.117252
0.117199
0.117147
0.117098
0.117051
0.117007
0.116965
0.116925
0.116888
0.116854
0.116822
0.116793
0.116767
0.116744
0.116724
0.116707
0.116693
0.116682
0.116674
0.116669
0.116669
0.1
0.0999726
0.0999643
0.0999764
0.100008
0.100056
0.100118
0.100191
0.100271
0.100355
0.10044
0.100523
0.100601
0.100673
0.100738
0.100796
0.100846
0.10089
0.100929
0.100965
0.101001
0.101038
0.101079
0.101127
0.101183
0.101249
0.101326
0.101416
0.101518
0.101633
0.10176
0.1019
0.102051
0.102212
0.102382
0.10256
0.102745
0.102935
0.10313
0.103329
0.10353
0.103735
0.103942
0.104152
0.104364
0.10458
0.1048
0.105026
0.105257
0.105495
0.105741
0.105996
0.10626
0.106535
0.106821
0.107119
0.107428
0.107749
0.108082
0.108427
0.108783
0.10915
0.109527
0.109915
0.110312
0.110718
0.111132
0.111554
0.111983
0.112419
0.112861
0.11331
0.113765
0.114225
0.114691
0.115162
0.115639
0.116122
0.116609
0.117101
0.117599
0.118101
0.118608
0.119119
0.119634
0.120153
0.120674
0.121198
0.121723
0.12225
0.122776
0.123303
0.123828
0.124351
0.124871
0.125387
0.125898
0.126405
0.126905
0.127398
0.127883
0.12836
0.128829
0.129288
0.129737
0.130177
0.130606
0.131024
0.131432
0.131828
0.132213
0.132587
0.13295
0.133302
0.133643
0.133973
0.134291
0.134599
0.134896
0.135183
0.135458
0.135724
0.135978
0.136223
0.136457
0.13668
0.136894
0.137097
0.13729
0.137473
0.137646
0.137809
0.137961
0.138104
0.138237
0.13836
0.138473
0.138577
0.138671
0.138756
0.138832
0.138899
0.138957
0.139007
0.139048
0.139081
0.139107
0.139125
0.139136
0.139141
0.139139
0.13913
0.139116
0.139097