# vtk DataFile Version 3.0
LBM Fluid Grid
ASCII
DATASET STRUCTURED_POINTS
DIMENSIONS 400 150 1
ORIGIN 0 0 0
SPACING 1 1 1
POINT_DATA 60000
SCALARS VelocityMagnitude double 1
LOOKUP_TABLE default
0.1
0.0999456
0.0999086
0.0998895
0.0998882
0.0999041
0.0999358
0.0999815
0.100039
0.100105
0.100178
0.100254
0.100332
0.100409
0.100482
0.100552
0.100616
0.100675
0.10073
0.10078
0.100828
0.100875
0.100922
0.100973
0.101029
0.101091
0.101161
0.10124
0.10133
0.101431
0.101544
0.101669
0.101805
0.101952
0.10211
0.102279
0.102456
0.102641
0.102834
0.103033
0.103238
0.103448
0.103663
0.103882
0.104105
0.104332
0.104563
0.104799
0.105041
0.105288
0.105543
0.105805
0.106075
0.106354
0.106643
0.106942
0.107252
0.107574
0.107906
0.10825
0.108605
0.108971
0.109348
0.109736
0.110134
0.110541
0.110957
0.111382
0.111814
0.112254
0.1127
0.113153
0.113611
0.114074
0.114543
0.115016
0.115494
0.115976
0.116461
0.116951
0.117444
0.117941
0.11844
0.118943
0.119448
0.119956
0.120466
0.120977
0.121489
0.122003
0.122516
0.123028
0.12354
0.12405
0.124557
0.125061
0.125561
0.126056
0.126545
0.127029
0.127506
0.127975
0.128436
0.128889
0.129333
0.129767
0.130192
0.130606
0.13101
0.131403
0.131785
0.132156
0.132517
0.132866
0.133205
0.133532
0.133848
0.134154
0.134449
0.134733
0.135007
0.13527
0.135523
0.135766
0.135998
0.136221
0.136433
0.136636
0.136829
0.137012
0.137185
0.137349
0.137503
0.137647
0.137783
0.137908
0.138025
0.138132
0.13823
0.13832
0.1384
0.138472
0.138535
0.13859
0.138637
0.138677
0.138708
0.138733
0.13875
0.138761
0.138765
0.138762
0.138754
0.138741
0.138721
0.138697
0.138668
0.138635
0.138597
0.138555
0.138509
0.138459
0.138406
0.138349
0.138289
0.138226
0.13816
0.138091
0.138019
0.137945
0.137868
0.137789
0.137707
0.137623
0.137536
0.137448
0.137357
0.137264
0.137169
0.137072
0.136974
0.136873
0.136772
0.136668
0.136564
0.136458
0.136351
0.136243
0.136135
0.136025
0.135915
0.135804
0.135693
0.135582
0.13547
0.135359
0.135247
0.135135
0.135023
0.134911
0.1348
0.134688
0.134577
0.134466
0.134355
0.134245
0.134135
0.134025
0.133915
0.133806
0.133697
0.133588
0.133479
0.133371
0.133263
0.133156
0.133049
0.132943
0.132837
0.132731
0.132626
0.132522
0.132418
0.132315
0.132213
0.132112
0.132011
0.131911
0.131812
0.131714
0.131617
0.131521
0.131426
0.131332
0.131239
0.131147
0.131055
0.130965
0.130876
0.130788
0.1307
0.130614
0.130528
0.130443
0.130359
0.130276
0.130193
0.130112
0.130031
0.12995
0.129871
0.129792
0.129714
0.129636
0.12956
0.129484
0.129408
0.129333
0.129259
0.129186
0.129113
0.129041
0.12897
0.128899
0.128829
0.12876
0.128691
0.128623
0.128555
0.128488
0.128422
0.128356
0.12829
0.128225
0.128161
0.128096
0.128033
0.127969
0.127906
0.127843
0.127781
0.127718
0.127656
0.127595
0.127533
0.127472
0.127411
0.12735
0.127289
0.127229
0.127168
0.127108
0.127049
0.126989
0.12693
0.126871
0.126812
0.126754
0.126695
0.126638
0.12658
0.126523
0.126466
0.126409
0.126352
0.126296
0.12624
0.126185
0.126129
0.126074
0.126019
0.125965
0.12591
0.125856
0.125802
0.125748
0.125695
0.125641
0.125588
0.125535
0.125482
0.12543
0.125377
0.125325
0.125273
0.125221
0.125169
0.125118
0.125066
0.125015
0.124965
0.124914
0.124863
0.124813
0.124763
0.124713
0.124664
0.124615
0.124566
0.124517
0.124468
0.12442
0.124372
0.124324
0.124277
0.12423
0.124183
0.124136
0.12409
0.124044
0.123999
0.123954
0.123909
0.123864
0.12382
0.123777
0.123733
0.12369
0.123648
0.123606
0.123564
0.123523
0.123483
0.123443
0.123404
0.123365
0.123326
0.123289
0.123252
0.123215
0.123179
0.123144
0.12311
0.123077
0.123044
0.123012
0.122981
0.122951
0.122922
0.122894
0.122867
0.122841
0.122816
0.122792
0.12277
0.122748
0.122728
0.122709
0.122691
0.122675
0.12266
0.122647
0.122634
0.122624
0.122614
0.122606
0.122599
0.122594
0.122589
0.122589
0.1
0.0999456
0.0999087
0.0998896
0.0998883
0.0999042
0.099936
0.0999816
0.100039
0.100105
0.100178
0.100254
0.100332
0.100409
0.100482
0.100551
0.100616
0.100675
0.100729
0.10078
0.100827
0.100874
0.100922
0.100973
0.101028
0.10109
0.10116
0.101239
0.101329
0.10143
0.101543
0.101668
0.101804
0.101951
0.102109
0.102278
0.102455
0.10264
0.102833
0.103032
0.103237
0.103447
0.103661
0.10388
0.104103
0.10433
0.104561
0.104797
0.105039
0.105286
0.105541
0.105803
0.106073
0.106352
0.106641
0.10694
0.107251
0.107572
0.107904
0.108248
0.108603
0.10897
0.109347
0.109735
0.110132
0.11054
0.110956
0.111381
0.111813
0.112253
0.112699
0.113152
0.11361
0.114074
0.114543
0.115016
0.115494
0.115976
0.116462
0.116952
0.117445
0.117942
0.118442
0.118945
0.119451
0.119959
0.120469
0.12098
0.121493
0.122006
0.12252
0.123033
0.123545
0.124055
0.124562
0.125066
0.125566
0.126062
0.126551
0.127035
0.127512
0.127982
0.128443
0.128896
0.12934
0.129774
0.130199
0.130613
0.131017
0.13141
0.131793
0.132164
0.132525
0.132874
0.133212
0.13354
0.133856
0.134162
0.134457
0.134741
0.135014
0.135278
0.13553
0.135773
0.136006
0.136228
0.13644
0.136643
0.136836
0.137019
0.137192
0.137355
0.137509
0.137654
0.137789
0.137915
0.138031
0.138138
0.138236
0.138326
0.138406
0.138478
0.138541
0.138596
0.138643
0.138682
0.138714
0.138738
0.138755
0.138765
0.138769
0.138767
0.138759
0.138745
0.138726
0.138702
0.138673
0.138639
0.138601
0.138559
0.138513
0.138463
0.138409
0.138353
0.138293
0.13823
0.138163
0.138095
0.138023
0.137948
0.137871
0.137792
0.13771
0.137626
0.137539
0.13745
0.137359
0.137266
0.137172
0.137075
0.136976
0.136876
0.136774
0.136671
0.136566
0.13646
0.136354
0.136246
0.136137
0.136027
0.135917
0.135807
0.135695
0.135584
0.135472
0.135361
0.135249
0.135137
0.135025
0.134913
0.134802
0.13469
0.134579
0.134468
0.134357
0.134247
0.134136
0.134026
0.133917
0.133807
0.133698
0.133589
0.133481
0.133373
0.133265
0.133158
0.133051
0.132944
0.132838
0.132733
0.132628
0.132523
0.13242
0.132317
0.132214
0.132113
0.132012
0.131912
0.131814
0.131716
0.131618
0.131522
0.131427
0.131333
0.13124
0.131148
0.131057
0.130966
0.130877
0.130789
0.130701
0.130615
0.130529
0.130444
0.13036
0.130277
0.130194
0.130113
0.130032
0.129951
0.129872
0.129793
0.129715
0.129637
0.12956
0.129484
0.129409
0.129334
0.12926
0.129187
0.129114
0.129042
0.128971
0.1289
0.12883
0.12876
0.128692
0.128623
0.128556
0.128489
0.128422
0.128356
0.128291
0.128226
0.128161
0.128097
0.128033
0.12797
0.127906
0.127844
0.127781
0.127719
0.127657
0.127595
0.127533
0.127472
0.127411
0.12735
0.127289
0.127229
0.127169
0.127109
0.127049
0.126989
0.12693
0.126871
0.126812
0.126754
0.126695
0.126637
0.12658
0.126522
0.126465
0.126409
0.126352
0.126296
0.12624
0.126184
0.126129
0.126074
0.126019
0.125964
0.12591
0.125855
0.125801
0.125748
0.125694
0.125641
0.125587
0.125534
0.125482
0.125429
0.125376
0.125324
0.125272
0.12522
0.125168
0.125117
0.125065
0.125014
0.124963
0.124913
0.124862
0.124812
0.124762
0.124712
0.124663
0.124613
0.124564
0.124515
0.124467
0.124419
0.124371
0.124323
0.124275
0.124228
0.124181
0.124135
0.124088
0.124043
0.123997
0.123952
0.123907
0.123862
0.123818
0.123774
0.123731
0.123688
0.123646
0.123604
0.123562
0.123521
0.123481
0.123441
0.123401
0.123362
0.123324
0.123286
0.123249
0.123213
0.123177
0.123142
0.123107
0.123074
0.123041
0.123009
0.122978
0.122948
0.122919
0.122891
0.122864
0.122838
0.122813
0.122789
0.122766
0.122745
0.122725
0.122706
0.122688
0.122672
0.122657
0.122643
0.122631
0.12262
0.122611
0.122603
0.122596
0.12259
0.122586
0.122586
0.1
0.0999458
0.099909
0.09989
0.0998888
0.0999047
0.0999364
0.099982
0.100039
0.100105
0.100178
0.100254
0.100332
0.100408
0.100481
0.100551
0.100615
0.100674
0.100728
0.100778
0.100826
0.100873
0.10092
0.100971
0.101026
0.101088
0.101158
0.101237
0.101327
0.101428
0.101541
0.101665
0.101801
0.101949
0.102107
0.102274
0.102451
0.102637
0.102829
0.103028
0.103233
0.103442
0.103657
0.103875
0.104098
0.104324
0.104556
0.104792
0.105033
0.105281
0.105535
0.105797
0.106067
0.106346
0.106635
0.106935
0.107245
0.107566
0.107899
0.108243
0.108598
0.108965
0.109342
0.10973
0.110128
0.110536
0.110953
0.111378
0.111811
0.112251
0.112697
0.113151
0.113609
0.114074
0.114543
0.115017
0.115496
0.115978
0.116465
0.116956
0.11745
0.117947
0.118448
0.118952
0.119458
0.119967
0.120478
0.12099
0.121504
0.122018
0.122532
0.123046
0.123559
0.12407
0.124578
0.125082
0.125583
0.126079
0.12657
0.127054
0.127531
0.128001
0.128463
0.128917
0.129361
0.129796
0.130221
0.130635
0.131039
0.131433
0.131815
0.132187
0.132547
0.132897
0.133235
0.133563
0.133879
0.134185
0.13448
0.134764
0.135037
0.1353
0.135553
0.135796
0.136028
0.13625
0.136462
0.136664
0.136857
0.13704
0.137213
0.137376
0.13753
0.137674
0.137808
0.137934
0.13805
0.138157
0.138254
0.138343
0.138423
0.138495
0.138558
0.138612
0.138659
0.138698
0.138729
0.138753
0.13877
0.13878
0.138784
0.138781
0.138773
0.138759
0.138739
0.138715
0.138685
0.138652
0.138613
0.138571
0.138524
0.138474
0.138421
0.138364
0.138304
0.13824
0.138174
0.138105
0.138033
0.137958
0.137881
0.137801
0.137719
0.137635
0.137548
0.137459
0.137368
0.137275
0.13718
0.137083
0.136984
0.136883
0.136782
0.136678
0.136573
0.136467
0.13636
0.136252
0.136143
0.136034
0.135924
0.135813
0.135702
0.13559
0.135478
0.135366
0.135254
0.135142
0.13503
0.134919
0.134807
0.134695
0.134584
0.134473
0.134362
0.134251
0.134141
0.134031
0.133921
0.133812
0.133703
0.133594
0.133485
0.133377
0.133269
0.133162
0.133055
0.132948
0.132842
0.132736
0.132631
0.132527
0.132423
0.13232
0.132218
0.132117
0.132016
0.131916
0.131817
0.131719
0.131622
0.131526
0.131431
0.131336
0.131243
0.131151
0.13106
0.130969
0.13088
0.130792
0.130704
0.130618
0.130532
0.130447
0.130363
0.130279
0.130197
0.130115
0.130034
0.129954
0.129874
0.129795
0.129717
0.12964
0.129563
0.129487
0.129411
0.129336
0.129262
0.129189
0.129116
0.129044
0.128973
0.128902
0.128832
0.128762
0.128693
0.128625
0.128557
0.12849
0.128424
0.128358
0.128292
0.128227
0.128162
0.128098
0.128034
0.127971
0.127907
0.127845
0.127782
0.12772
0.127657
0.127596
0.127534
0.127473
0.127411
0.12735
0.12729
0.127229
0.127169
0.127109
0.127049
0.126989
0.12693
0.126871
0.126812
0.126753
0.126695
0.126637
0.126579
0.126522
0.126465
0.126408
0.126351
0.126295
0.126239
0.126183
0.126128
0.126072
0.126017
0.125963
0.125908
0.125854
0.1258
0.125746
0.125692
0.125639
0.125585
0.125532
0.125479
0.125427
0.125374
0.125322
0.125269
0.125217
0.125166
0.125114
0.125062
0.125011
0.12496
0.124909
0.124859
0.124808
0.124758
0.124708
0.124659
0.124609
0.12456
0.124511
0.124463
0.124414
0.124366
0.124318
0.124271
0.124223
0.124176
0.12413
0.124083
0.124037
0.123991
0.123946
0.123901
0.123857
0.123812
0.123768
0.123725
0.123682
0.123639
0.123597
0.123556
0.123514
0.123474
0.123433
0.123394
0.123355
0.123316
0.123278
0.123241
0.123205
0.123169
0.123134
0.123099
0.123065
0.123033
0.123001
0.122969
0.122939
0.12291
0.122882
0.122854
0.122828
0.122803
0.122779
0.122756
0.122735
0.122715
0.122696
0.122678
0.122661
0.122646
0.122633
0.12262
0.12261
0.1226
0.122592
0.122585
0.12258
0.122575
0.122575
0.1
0.099946
0.0999095
0.0998906
0.0998895
0.0999055
0.0999372
0.0999827
0.10004
0.100106
0.100178
0.100254
0.100331
0.100407
0.10048
0.100549
0.100613
0.100672
0.100726
0.100776
0.100823
0.10087
0.100918
0.100968
0.101023
0.101085
0.101155
0.101234
0.101324
0.101425
0.101537
0.101661
0.101797
0.101944
0.102102
0.102269
0.102446
0.102631
0.102823
0.103021
0.103225
0.103435
0.103649
0.103867
0.104089
0.104315
0.104546
0.104782
0.105023
0.105271
0.105525
0.105787
0.106057
0.106337
0.106626
0.106925
0.107235
0.107557
0.10789
0.108234
0.10859
0.108957
0.109335
0.109723
0.110122
0.11053
0.110947
0.111372
0.111806
0.112247
0.112694
0.113148
0.113608
0.114073
0.114543
0.115018
0.115498
0.115982
0.116469
0.116961
0.117457
0.117955
0.118458
0.118963
0.119471
0.119981
0.120493
0.121007
0.121522
0.122038
0.122553
0.123068
0.123582
0.124094
0.124604
0.12511
0.125611
0.126108
0.1266
0.127085
0.127564
0.128034
0.128497
0.128951
0.129396
0.129831
0.130257
0.130672
0.131076
0.13147
0.131853
0.132225
0.132586
0.132935
0.133274
0.133601
0.133918
0.134223
0.134518
0.134802
0.135075
0.135338
0.135591
0.135833
0.136065
0.136287
0.136499
0.1367
0.136892
0.137075
0.137247
0.13741
0.137563
0.137707
0.137841
0.137966
0.138081
0.138187
0.138285
0.138373
0.138452
0.138523
0.138586
0.13864
0.138686
0.138724
0.138755
0.138779
0.138795
0.138805
0.138808
0.138805
0.138796
0.138782
0.138762
0.138737
0.138707
0.138673
0.138634
0.138591
0.138544
0.138494
0.13844
0.138382
0.138322
0.138258
0.138191
0.138122
0.138049
0.137975
0.137897
0.137817
0.137734
0.13765
0.137562
0.137473
0.137382
0.137288
0.137193
0.137096
0.136997
0.136896
0.136794
0.13669
0.136585
0.136479
0.136372
0.136264
0.136154
0.136045
0.135934
0.135823
0.135712
0.1356
0.135488
0.135376
0.135264
0.135152
0.13504
0.134928
0.134816
0.134704
0.134593
0.134481
0.13437
0.13426
0.134149
0.134039
0.133929
0.133819
0.13371
0.133601
0.133492
0.133384
0.133276
0.133169
0.133061
0.132955
0.132849
0.132743
0.132638
0.132533
0.13243
0.132326
0.132224
0.132123
0.132022
0.131922
0.131823
0.131725
0.131628
0.131531
0.131436
0.131342
0.131249
0.131156
0.131065
0.130975
0.130885
0.130797
0.130709
0.130622
0.130536
0.130451
0.130367
0.130284
0.130201
0.130119
0.130038
0.129958
0.129878
0.129799
0.129721
0.129643
0.129567
0.12949
0.129415
0.12934
0.129266
0.129192
0.129119
0.129047
0.128976
0.128905
0.128835
0.128765
0.128696
0.128628
0.12856
0.128493
0.128426
0.12836
0.128294
0.128229
0.128164
0.1281
0.128036
0.127972
0.127909
0.127846
0.127783
0.127721
0.127659
0.127597
0.127535
0.127473
0.127412
0.127351
0.12729
0.12723
0.127169
0.127109
0.127049
0.126989
0.12693
0.12687
0.126812
0.126753
0.126694
0.126636
0.126578
0.126521
0.126464
0.126407
0.12635
0.126293
0.126237
0.126181
0.126126
0.12607
0.126015
0.12596
0.125906
0.125851
0.125797
0.125743
0.125689
0.125635
0.125582
0.125528
0.125475
0.125422
0.12537
0.125317
0.125265
0.125213
0.125161
0.125109
0.125057
0.125006
0.124955
0.124904
0.124853
0.124802
0.124752
0.124702
0.124652
0.124603
0.124553
0.124504
0.124455
0.124407
0.124358
0.12431
0.124262
0.124215
0.124168
0.124121
0.124074
0.124028
0.123982
0.123937
0.123891
0.123847
0.123802
0.123758
0.123714
0.123671
0.123628
0.123586
0.123544
0.123503
0.123462
0.123421
0.123382
0.123342
0.123304
0.123265
0.123228
0.123191
0.123155
0.12312
0.123085
0.123051
0.123018
0.122986
0.122955
0.122924
0.122895
0.122866
0.122839
0.122812
0.122787
0.122763
0.12274
0.122718
0.122698
0.122679
0.122661
0.122644
0.122629
0.122615
0.122603
0.122592
0.122582
0.122574
0.122567
0.122562
0.122557
0.122557
0.1
0.0999464
0.0999101
0.0998915
0.0998906
0.0999066
0.0999383
0.0999837
0.100041
0.100106
0.100178
0.100254
0.10033
0.100406
0.100479
0.100547
0.100611
0.100669
0.100723
0.100772
0.10082
0.100866
0.100914
0.100964
0.101019
0.101081
0.101151
0.10123
0.101319
0.10142
0.101532
0.101656
0.101791
0.101938
0.102095
0.102262
0.102438
0.102622
0.102814
0.103012
0.103215
0.103424
0.103637
0.103855
0.104077
0.104303
0.104533
0.104769
0.10501
0.105257
0.105511
0.105773
0.106043
0.106323
0.106612
0.106912
0.107222
0.107544
0.107877
0.108222
0.108578
0.108946
0.109324
0.109713
0.110112
0.110521
0.110939
0.111365
0.111799
0.112241
0.11269
0.113144
0.113605
0.114072
0.114543
0.11502
0.115501
0.115986
0.116476
0.116969
0.117466
0.117967
0.118471
0.118978
0.119488
0.12
0.120514
0.12103
0.121547
0.122065
0.122583
0.1231
0.123615
0.124129
0.12464
0.125148
0.125651
0.12615
0.126642
0.127129
0.127609
0.128081
0.128544
0.128999
0.129445
0.129881
0.130307
0.130723
0.131128
0.131523
0.131906
0.132278
0.132639
0.132989
0.133328
0.133655
0.133972
0.134277
0.134572
0.134856
0.135129
0.135391
0.135644
0.135885
0.136117
0.136338
0.136549
0.136751
0.136942
0.137124
0.137295
0.137457
0.13761
0.137753
0.137886
0.13801
0.138125
0.138231
0.138327
0.138414
0.138493
0.138563
0.138625
0.138678
0.138724
0.138762
0.138792
0.138814
0.13883
0.138839
0.138842
0.138838
0.138829
0.138813
0.138793
0.138767
0.138737
0.138702
0.138663
0.138619
0.138572
0.138521
0.138466
0.138408
0.138347
0.138283
0.138216
0.138146
0.138073
0.137997
0.137919
0.137839
0.137756
0.13767
0.137583
0.137493
0.137401
0.137307
0.137212
0.137114
0.137015
0.136914
0.136811
0.136707
0.136602
0.136495
0.136388
0.136279
0.13617
0.13606
0.135949
0.135838
0.135726
0.135614
0.135502
0.13539
0.135277
0.135165
0.135052
0.13494
0.134828
0.134716
0.134604
0.134493
0.134382
0.134271
0.13416
0.13405
0.13394
0.13383
0.13372
0.133611
0.133502
0.133394
0.133286
0.133178
0.133071
0.132964
0.132858
0.132752
0.132647
0.132542
0.132438
0.132335
0.132233
0.132131
0.13203
0.13193
0.131831
0.131733
0.131635
0.131539
0.131444
0.131349
0.131256
0.131163
0.131072
0.130982
0.130892
0.130803
0.130716
0.130629
0.130543
0.130458
0.130374
0.13029
0.130207
0.130125
0.130044
0.129964
0.129884
0.129805
0.129726
0.129649
0.129572
0.129495
0.12942
0.129345
0.12927
0.129197
0.129124
0.129051
0.12898
0.128909
0.128839
0.128769
0.1287
0.128631
0.128563
0.128496
0.128429
0.128363
0.128297
0.128232
0.128167
0.128102
0.128038
0.127974
0.127911
0.127848
0.127785
0.127722
0.12766
0.127598
0.127536
0.127474
0.127413
0.127352
0.127291
0.12723
0.127169
0.127109
0.127049
0.126989
0.126929
0.12687
0.126811
0.126752
0.126693
0.126635
0.126577
0.126519
0.126462
0.126404
0.126347
0.126291
0.126234
0.126178
0.126122
0.126067
0.126011
0.125956
0.125901
0.125847
0.125792
0.125738
0.125684
0.12563
0.125576
0.125523
0.12547
0.125416
0.125363
0.125311
0.125258
0.125206
0.125153
0.125101
0.12505
0.124998
0.124946
0.124895
0.124844
0.124793
0.124743
0.124693
0.124642
0.124593
0.124543
0.124494
0.124444
0.124396
0.124347
0.124299
0.124251
0.124203
0.124155
0.124108
0.124061
0.124015
0.123969
0.123923
0.123877
0.123832
0.123787
0.123743
0.123699
0.123656
0.123612
0.12357
0.123528
0.123486
0.123445
0.123404
0.123364
0.123324
0.123285
0.123247
0.123209
0.123172
0.123136
0.1231
0.123065
0.123031
0.122997
0.122965
0.122933
0.122902
0.122873
0.122844
0.122816
0.122789
0.122764
0.12274
0.122716
0.122694
0.122674
0.122654
0.122636
0.122619
0.122604
0.12259
0.122578
0.122566
0.122557
0.122548
0.122541
0.122536
0.122531
0.122531
0.1
0.0999468
0.0999109
0.0998926
0.0998919
0.099908
0.0999397
0.099985
0.100042
0.100107
0.100179
0.100254
0.10033
0.100405
0.100477
0.100544
0.100607
0.100665
0.100719
0.100768
0.100815
0.100862
0.100909
0.100959
0.101014
0.101076
0.101145
0.101224
0.101313
0.101413
0.101525
0.101648
0.101783
0.101929
0.102086
0.102252
0.102428
0.102611
0.102802
0.102999
0.103202
0.10341
0.103623
0.10384
0.104061
0.104287
0.104517
0.104752
0.104992
0.105239
0.105493
0.105755
0.106025
0.106305
0.106594
0.106894
0.107205
0.107527
0.107861
0.108206
0.108563
0.108931
0.10931
0.1097
0.1101
0.110509
0.110928
0.111355
0.111791
0.112234
0.112683
0.11314
0.113602
0.11407
0.114543
0.115021
0.115504
0.115992
0.116483
0.116979
0.117479
0.117982
0.118488
0.118998
0.11951
0.120025
0.120542
0.12106
0.12158
0.1221
0.12262
0.12314
0.123658
0.124174
0.124687
0.125197
0.125702
0.126202
0.126697
0.127185
0.127667
0.12814
0.128605
0.129062
0.129509
0.129946
0.130373
0.130789
0.131195
0.13159
0.131974
0.132347
0.132708
0.133058
0.133397
0.133725
0.134041
0.134347
0.134641
0.134925
0.135198
0.13546
0.135711
0.135953
0.136184
0.136404
0.136615
0.136815
0.137006
0.137187
0.137357
0.137519
0.13767
0.137812
0.137944
0.138068
0.138181
0.138286
0.138381
0.138468
0.138546
0.138615
0.138675
0.138728
0.138772
0.138809
0.138838
0.13886
0.138875
0.138883
0.138885
0.138881
0.13887
0.138854
0.138833
0.138807
0.138775
0.13874
0.1387
0.138655
0.138607
0.138556
0.1385
0.138442
0.13838
0.138315
0.138247
0.138176
0.138103
0.138026
0.137948
0.137867
0.137783
0.137697
0.137609
0.137519
0.137426
0.137332
0.137236
0.137137
0.137038
0.136936
0.136833
0.136729
0.136623
0.136516
0.136408
0.136299
0.136189
0.136079
0.135968
0.135856
0.135744
0.135632
0.13552
0.135407
0.135294
0.135181
0.135069
0.134956
0.134844
0.134732
0.13462
0.134508
0.134396
0.134285
0.134174
0.134064
0.133953
0.133843
0.133733
0.133624
0.133515
0.133406
0.133298
0.13319
0.133083
0.132976
0.132869
0.132763
0.132658
0.132553
0.132449
0.132346
0.132243
0.132141
0.13204
0.13194
0.131841
0.131743
0.131645
0.131549
0.131453
0.131359
0.131265
0.131173
0.131081
0.13099
0.130901
0.130812
0.130724
0.130637
0.130551
0.130466
0.130381
0.130298
0.130215
0.130133
0.130051
0.12997
0.129891
0.129811
0.129733
0.129655
0.129578
0.129501
0.129425
0.12935
0.129276
0.129202
0.129129
0.129056
0.128985
0.128914
0.128843
0.128773
0.128704
0.128635
0.128567
0.1285
0.128433
0.128366
0.1283
0.128235
0.12817
0.128105
0.128041
0.127977
0.127913
0.12785
0.127787
0.127724
0.127661
0.127599
0.127537
0.127475
0.127413
0.127352
0.127291
0.127229
0.127169
0.127108
0.127048
0.126988
0.126928
0.126868
0.126809
0.12675
0.126691
0.126632
0.126574
0.126516
0.126458
0.126401
0.126344
0.126287
0.12623
0.126174
0.126118
0.126062
0.126006
0.125951
0.125896
0.125841
0.125786
0.125731
0.125677
0.125623
0.125569
0.125515
0.125461
0.125408
0.125355
0.125302
0.125249
0.125196
0.125143
0.125091
0.125039
0.124987
0.124935
0.124884
0.124832
0.124781
0.12473
0.12468
0.124629
0.124579
0.124529
0.124479
0.12443
0.124381
0.124332
0.124283
0.124235
0.124187
0.124139
0.124091
0.124044
0.123997
0.123951
0.123904
0.123858
0.123813
0.123768
0.123723
0.123679
0.123635
0.123591
0.123548
0.123506
0.123464
0.123422
0.123381
0.12334
0.1233
0.123261
0.123222
0.123184
0.123147
0.12311
0.123074
0.123038
0.123004
0.12297
0.122937
0.122905
0.122874
0.122844
0.122815
0.122786
0.122759
0.122734
0.122709
0.122685
0.122663
0.122642
0.122622
0.122604
0.122587
0.122571
0.122557
0.122544
0.122533
0.122523
0.122515
0.122508
0.122502
0.122498
0.122498
0.1
0.0999473
0.0999119
0.099894
0.0998935
0.0999098
0.0999414
0.0999865
0.100043
0.100108
0.100179
0.100253
0.100328
0.100403
0.100474
0.100541
0.100604
0.100661
0.100714
0.100763
0.10081
0.100856
0.100903
0.100953
0.101008
0.101069
0.101138
0.101217
0.101305
0.101405
0.101517
0.101639
0.101774
0.101919
0.102075
0.102241
0.102415
0.102598
0.102788
0.102984
0.103186
0.103393
0.103605
0.103821
0.104042
0.104267
0.104496
0.104731
0.104971
0.105218
0.105471
0.105733
0.106003
0.106283
0.106572
0.106873
0.107184
0.107506
0.107841
0.108186
0.108544
0.108913
0.109293
0.109683
0.110084
0.110495
0.110915
0.111343
0.11178
0.112224
0.112676
0.113133
0.113598
0.114068
0.114543
0.115023
0.115509
0.115998
0.116493
0.116991
0.117494
0.118
0.118509
0.119022
0.119537
0.120055
0.120575
0.121097
0.12162
0.122143
0.122666
0.123189
0.123709
0.124228
0.124744
0.125257
0.125764
0.126267
0.126764
0.127255
0.127738
0.128213
0.12868
0.129138
0.129586
0.130025
0.130453
0.13087
0.131277
0.131673
0.132058
0.132431
0.132793
0.133143
0.133482
0.13381
0.134127
0.134432
0.134726
0.135009
0.135282
0.135543
0.135795
0.136035
0.136265
0.136485
0.136695
0.136894
0.137084
0.137263
0.137433
0.137593
0.137744
0.137884
0.138016
0.138137
0.13825
0.138353
0.138447
0.138533
0.138609
0.138677
0.138737
0.138788
0.138832
0.138867
0.138895
0.138916
0.13893
0.138937
0.138938
0.138932
0.138921
0.138904
0.138882
0.138854
0.138822
0.138786
0.138745
0.1387
0.138651
0.138598
0.138542
0.138482
0.138419
0.138354
0.138285
0.138213
0.138139
0.138062
0.137982
0.1379
0.137816
0.137729
0.137641
0.13755
0.137457
0.137362
0.137265
0.137166
0.137065
0.136963
0.13686
0.136755
0.136649
0.136541
0.136433
0.136323
0.136213
0.136102
0.135991
0.135879
0.135766
0.135654
0.135541
0.135428
0.135315
0.135202
0.135089
0.134976
0.134863
0.13475
0.134638
0.134526
0.134414
0.134303
0.134191
0.13408
0.13397
0.133859
0.133749
0.13364
0.13353
0.133421
0.133313
0.133205
0.133097
0.13299
0.132883
0.132777
0.132671
0.132566
0.132462
0.132359
0.132256
0.132154
0.132053
0.131952
0.131853
0.131754
0.131657
0.13156
0.131464
0.13137
0.131276
0.131183
0.131091
0.131001
0.130911
0.130822
0.130734
0.130646
0.13056
0.130475
0.13039
0.130306
0.130223
0.130141
0.130059
0.129978
0.129898
0.129819
0.12974
0.129662
0.129585
0.129508
0.129432
0.129357
0.129282
0.129208
0.129135
0.129062
0.12899
0.128919
0.128848
0.128778
0.128708
0.12864
0.128571
0.128504
0.128436
0.12837
0.128303
0.128238
0.128172
0.128107
0.128043
0.127979
0.127915
0.127851
0.127788
0.127725
0.127662
0.127599
0.127537
0.127475
0.127413
0.127351
0.12729
0.127228
0.127167
0.127106
0.127046
0.126985
0.126925
0.126865
0.126806
0.126746
0.126687
0.126628
0.12657
0.126511
0.126453
0.126396
0.126338
0.126281
0.126224
0.126167
0.126111
0.126054
0.125999
0.125943
0.125887
0.125832
0.125777
0.125722
0.125667
0.125613
0.125558
0.125504
0.12545
0.125396
0.125343
0.125289
0.125236
0.125183
0.12513
0.125077
0.125025
0.124973
0.12492
0.124868
0.124817
0.124765
0.124714
0.124663
0.124612
0.124561
0.124511
0.124461
0.124411
0.124361
0.124312
0.124263
0.124214
0.124166
0.124117
0.124069
0.124022
0.123974
0.123927
0.123881
0.123834
0.123788
0.123743
0.123698
0.123653
0.123608
0.123564
0.123521
0.123478
0.123435
0.123393
0.123352
0.123311
0.12327
0.12323
0.123191
0.123152
0.123114
0.123077
0.12304
0.123005
0.12297
0.122935
0.122902
0.122869
0.122838
0.122807
0.122778
0.122749
0.122722
0.122695
0.12267
0.122646
0.122624
0.122602
0.122582
0.122563
0.122546
0.12253
0.122516
0.122503
0.122491
0.122481
0.122473
0.122466
0.12246
0.122455
0.122455
0.1
0.099948
0.0999131
0.0998955
0.0998954
0.0999118
0.0999434
0.0999883
0.100044
0.100109
0.100179
0.100253
0.100327
0.1004
0.100471
0.100537
0.100599
0.100656
0.100708
0.100757
0.100803
0.100849
0.100896
0.100946
0.101
0.101061
0.10113
0.101208
0.101296
0.101396
0.101507
0.101629
0.101762
0.101907
0.102062
0.102227
0.1024
0.102582
0.102771
0.102966
0.103167
0.103373
0.103584
0.103799
0.104019
0.104243
0.104472
0.104706
0.104945
0.105192
0.105445
0.105707
0.105977
0.106257
0.106546
0.106847
0.107159
0.107482
0.107817
0.108163
0.108521
0.108891
0.109272
0.109663
0.110065
0.110477
0.110898
0.111329
0.111767
0.112213
0.112666
0.113126
0.113592
0.114064
0.114542
0.115025
0.115513
0.116006
0.116504
0.117005
0.117511
0.11802
0.118534
0.11905
0.119569
0.120091
0.120615
0.12114
0.121667
0.122194
0.12272
0.123246
0.123771
0.124293
0.124812
0.125328
0.125838
0.126344
0.126844
0.127336
0.127822
0.128299
0.128768
0.129228
0.129678
0.130118
0.130548
0.130966
0.131374
0.131771
0.132156
0.13253
0.132893
0.133243
0.133583
0.133911
0.134227
0.134532
0.134826
0.135109
0.135381
0.135642
0.135893
0.136132
0.136362
0.136581
0.136789
0.136988
0.137176
0.137354
0.137523
0.137681
0.13783
0.13797
0.1381
0.13822
0.138331
0.138433
0.138526
0.13861
0.138685
0.138751
0.138809
0.138859
0.138901
0.138936
0.138962
0.138982
0.138995
0.139001
0.139
0.138993
0.138981
0.138963
0.138939
0.138911
0.138878
0.13884
0.138798
0.138752
0.138701
0.138648
0.13859
0.13853
0.138466
0.138399
0.138329
0.138257
0.138182
0.138104
0.138023
0.13794
0.137855
0.137768
0.137678
0.137586
0.137492
0.137396
0.137299
0.137199
0.137098
0.136995
0.136891
0.136786
0.136679
0.136571
0.136462
0.136352
0.136241
0.13613
0.136018
0.135905
0.135792
0.135679
0.135566
0.135452
0.135339
0.135225
0.135112
0.134998
0.134885
0.134772
0.134659
0.134547
0.134435
0.134323
0.134211
0.1341
0.133989
0.133878
0.133768
0.133658
0.133548
0.133439
0.13333
0.133221
0.133113
0.133006
0.132899
0.132792
0.132687
0.132581
0.132477
0.132373
0.13227
0.132168
0.132066
0.131966
0.131866
0.131767
0.13167
0.131573
0.131477
0.131382
0.131288
0.131195
0.131103
0.131012
0.130922
0.130833
0.130744
0.130657
0.13057
0.130485
0.1304
0.130316
0.130232
0.13015
0.130068
0.129987
0.129906
0.129827
0.129748
0.129669
0.129592
0.129515
0.129439
0.129363
0.129288
0.129214
0.12914
0.129067
0.128995
0.128924
0.128853
0.128782
0.128713
0.128644
0.128575
0.128507
0.128439
0.128372
0.128306
0.12824
0.128174
0.128109
0.128044
0.12798
0.127915
0.127851
0.127788
0.127724
0.127661
0.127598
0.127536
0.127473
0.127411
0.127349
0.127287
0.127226
0.127164
0.127103
0.127042
0.126981
0.126921
0.12686
0.1268
0.126741
0.126681
0.126622
0.126563
0.126504
0.126446
0.126388
0.12633
0.126272
0.126215
0.126158
0.126101
0.126044
0.125988
0.125932
0.125876
0.12582
0.125765
0.125709
0.125654
0.125599
0.125545
0.12549
0.125436
0.125381
0.125327
0.125273
0.12522
0.125166
0.125113
0.12506
0.125007
0.124954
0.124901
0.124849
0.124797
0.124745
0.124693
0.124641
0.12459
0.124539
0.124488
0.124438
0.124387
0.124337
0.124287
0.124238
0.124188
0.124139
0.12409
0.124042
0.123994
0.123946
0.123898
0.123851
0.123804
0.123758
0.123712
0.123666
0.12362
0.123576
0.123531
0.123487
0.123443
0.1234
0.123358
0.123315
0.123274
0.123233
0.123192
0.123152
0.123113
0.123075
0.123037
0.123
0.122963
0.122928
0.122893
0.122859
0.122826
0.122794
0.122763
0.122732
0.122703
0.122675
0.122649
0.122623
0.122599
0.122575
0.122554
0.122533
0.122514
0.122496
0.12248
0.122465
0.122452
0.12244
0.12243
0.122421
0.122414
0.122408
0.122404
0.122404
0.1
0.0999487
0.0999144
0.0998974
0.0998975
0.099914
0.0999456
0.0999903
0.100046
0.10011
0.100179
0.100252
0.100325
0.100398
0.100467
0.100533
0.100594
0.10065
0.100701
0.10075
0.100796
0.100841
0.100888
0.100937
0.100991
0.101052
0.10112
0.101198
0.101286
0.101385
0.101495
0.101616
0.101749
0.101893
0.102047
0.102211
0.102383
0.102564
0.102751
0.102945
0.103145
0.10335
0.10356
0.103774
0.103992
0.104215
0.104443
0.104676
0.104916
0.105162
0.105415
0.105676
0.105946
0.106226
0.106516
0.106817
0.107129
0.107453
0.107788
0.108136
0.108495
0.108865
0.109247
0.10964
0.110043
0.110457
0.110879
0.111311
0.111751
0.112199
0.112655
0.113117
0.113585
0.11406
0.114541
0.115027
0.115518
0.116015
0.116516
0.117021
0.117531
0.118044
0.118562
0.119082
0.119606
0.120132
0.12066
0.12119
0.121721
0.122252
0.122783
0.123313
0.123842
0.124368
0.124891
0.12541
0.125924
0.126433
0.126935
0.127431
0.127919
0.128399
0.12887
0.129332
0.129784
0.130226
0.130657
0.131077
0.131487
0.131884
0.132271
0.132645
0.133008
0.133359
0.133699
0.134027
0.134344
0.134649
0.134942
0.135225
0.135496
0.135756
0.136006
0.136245
0.136473
0.136691
0.136898
0.137095
0.137282
0.137459
0.137626
0.137783
0.13793
0.138068
0.138196
0.138315
0.138424
0.138525
0.138616
0.138698
0.138771
0.138836
0.138893
0.138941
0.138982
0.139014
0.13904
0.139058
0.139069
0.139073
0.139072
0.139063
0.13905