# vtk DataFile Version 3.0
LBM Fluid Grid
ASCII
DATASET STRUCTURED_POINTS
DIMENSIONS 400 150 1
ORIGIN 0 0 0
SPACING 1 1 1
POINT_DATA 60000
SCALARS VelocityMagnitude double 1
LOOKUP_TABLE default
0.1
0.0999767
0.0999536
0.0999322
0.099914
0.0999004
0.0998927
0.099892
0.0998993
0.0999151
0.0999397
0.0999733
0.100016
0.100067
0.100125
0.100191
0.100263
0.10034
0.100423
0.100508
0.100597
0.100689
0.100783
0.100879
0.100976
0.101076
0.101178
0.101283
0.101391
0.101503
0.10162
0.101742
0.101871
0.102006
0.102148
0.102299
0.102458
0.102625
0.102801
0.102986
0.10318
0.103383
0.103595
0.103815
0.104044
0.104281
0.104526
0.104779
0.105039
0.105306
0.105581
0.105863
0.106153
0.10645
0.106755
0.107067
0.107387
0.107716
0.108053
0.108399
0.108753
0.109117
0.10949
0.109872
0.110263
0.110664
0.111074
0.111494
0.111922
0.112359
0.112804
0.113258
0.113719
0.114187
0.114662
0.115143
0.11563
0.116122
0.116619
0.117119
0.117624
0.118131
0.118641
0.119153
0.119667
0.120181
0.120696
0.121212
0.121726
0.12224
0.122753
0.123264
0.123773
0.124279
0.124781
0.12528
0.125775
0.126265
0.12675
0.127229
0.127702
0.128169
0.128628
0.12908
0.129523
0.129958
0.130385
0.130801
0.131209
0.131606
0.131993
0.13237
0.132735
0.13309
0.133434
0.133766
0.134087
0.134397
0.134695
0.134982
0.135258
0.135522
0.135775
0.136017
0.136248
0.136468
0.136678
0.136877
0.137066
0.137245
0.137413
0.137572
0.137722
0.137862
0.137993
0.138115
0.138228
0.138333
0.138429
0.138517
0.138596
0.138668
0.138732
0.138789
0.138838
0.138879
0.138914
0.138941
0.138962
0.138976
0.138984
0.138986
0.138982
0.138971
0.138956
0.138934
0.138908
0.138877
0.13884
0.1388
0.138754
0.138705
0.138652
0.138594
0.138534
0.138469
0.138402
0.138332
0.138258
0.138182
0.138104
0.138022
0.137939
0.137853
0.137766
0.137676
0.137585
0.137492
0.137397
0.1373
0.137202
0.137103
0.137002
0.1369
0.136797
0.136693
0.136588
0.136482
0.136375
0.136267
0.136158
0.136049
0.13594
0.135829
0.135719
0.135608
0.135497
0.135386
0.135275
0.135164
0.135052
0.134941
0.134831
0.13472
0.13461
0.1345
0.134391
0.134282
0.134173
0.134065
0.133958
0.133851
0.133744
0.133639
0.133533
0.133429
0.133325
0.133222
0.133119
0.133017
0.132915
0.132815
0.132714
0.132615
0.132516
0.132418
0.132321
0.132224
0.132128
0.132033
0.131939
0.131845
0.131752
0.13166
0.131569
0.131478
0.131389
0.1313
0.131212
0.131126
0.13104
0.130954
0.13087
0.130787
0.130705
0.130623
0.130542
0.130463
0.130384
0.130306
0.130229
0.130152
0.130077
0.130002
0.129929
0.129856
0.129783
0.129712
0.129641
0.129571
0.129502
0.129434
0.129366
0.1293
0.129234
0.129168
0.129104
0.12904
0.128977
0.128915
0.128853
0.128792
0.128732
0.128673
0.128614
0.128556
0.128499
0.128442
0.128386
0.128331
0.128277
0.128223
0.128169
0.128117
0.128065
0.128013
0.127963
0.127912
0.127863
0.127813
0.127765
0.127717
0.127669
0.127622
0.127575
0.127529
0.127484
0.127438
0.127394
0.12735
0.127306
0.127263
0.12722
0.127177
0.127136
0.127094
0.127053
0.127012
0.126972
0.126933
0.126893
0.126855
0.126816
0.126778
0.12674
0.126703
0.126666
0.12663
0.126594
0.126558
0.126523
0.126488
0.126454
0.12642
0.126386
0.126352
0.126319
0.126287
0.126255
0.126223
0.126191
0.12616
0.126129
0.126099
0.126069
0.12604
0.12601
0.125982
0.125953
0.125926
0.125898
0.125871
0.125844
0.125818
0.125792
0.125767
0.125742
0.125718
0.125694
0.12567
0.125647
0.125625
0.125603
0.125581
0.12556
0.125539
0.125519
0.125499
0.12548
0.125461
0.125443
0.125426
0.125409
0.125392
0.125376
0.125361
0.125346
0.125331
0.125317
0.125304
0.125292
0.12528
0.125268
0.125257
0.125247
0.125237
0.125228
0.12522
0.125212
0.125205
0.125198
0.125192
0.125186
0.125181
0.125177
0.125173
0.12517
0.125167
0.125164
0.125162
0.12516
0.125159
0.125158
0.125157
0.125157
0.125156
0.125156
0.125155
0.125155
0.125155
0.1
0.0999767
0.0999536
0.0999322
0.0999139
0.0999003
0.0998926
0.099892
0.0998992
0.099915
0.0999396
0.0999732
0.100016
0.100067
0.100125
0.100191
0.100263
0.100341
0.100423
0.100509
0.100598
0.100689
0.100783
0.100879
0.100977
0.101076
0.101179
0.101284
0.101392
0.101504
0.101621
0.101743
0.101872
0.102007
0.10215
0.1023
0.102459
0.102626
0.102802
0.102987
0.103181
0.103385
0.103596
0.103817
0.104046
0.104283
0.104528
0.10478
0.10504
0.105308
0.105583
0.105865
0.106155
0.106452
0.106757
0.107069
0.107389
0.107718
0.108055
0.1084
0.108755
0.109118
0.109491
0.109873
0.110265
0.110665
0.111075
0.111495
0.111923
0.11236
0.112805
0.113258
0.113719
0.114187
0.114662
0.115143
0.11563
0.116121
0.116618
0.117118
0.117623
0.11813
0.118639
0.119151
0.119664
0.120179
0.120694
0.121209
0.121723
0.122237
0.122749
0.12326
0.123768
0.124274
0.124776
0.125275
0.12577
0.126259
0.126744
0.127223
0.127696
0.128162
0.128621
0.129073
0.129516
0.129951
0.130377
0.130794
0.131202
0.131599
0.131986
0.132362
0.132728
0.133083
0.133426
0.133759
0.13408
0.134389
0.134688
0.134975
0.13525
0.135515
0.135768
0.13601
0.136241
0.136461
0.136671
0.13687
0.137059
0.137238
0.137406
0.137566
0.137715
0.137855
0.137987
0.138109
0.138222
0.138327
0.138423
0.138511
0.138591
0.138663
0.138727
0.138783
0.138832
0.138874
0.138909
0.138936
0.138957
0.138972
0.13898
0.138981
0.138977
0.138967
0.138951
0.13893
0.138904
0.138872
0.138836
0.138796
0.13875
0.138701
0.138648
0.138591
0.13853
0.138466
0.138399
0.138328
0.138255
0.138179
0.1381
0.138019
0.137936
0.137851
0.137763
0.137673
0.137582
0.137489
0.137394
0.137298
0.1372
0.1371
0.137
0.136898
0.136795
0.136691
0.136586
0.136479
0.136372
0.136265
0.136156
0.136047
0.135938
0.135827
0.135717
0.135606
0.135495
0.135384
0.135273
0.135162
0.135051
0.13494
0.134829
0.134718
0.134608
0.134498
0.134389
0.13428
0.134172
0.134064
0.133956
0.133849
0.133743
0.133637
0.133532
0.133427
0.133324
0.13322
0.133118
0.133016
0.132914
0.132813
0.132713
0.132614
0.132515
0.132417
0.13232
0.132223
0.132127
0.132032
0.131937
0.131844
0.131751
0.131659
0.131568
0.131477
0.131388
0.131299
0.131211
0.131125
0.131039
0.130953
0.130869
0.130786
0.130704
0.130622
0.130542
0.130462
0.130383
0.130305
0.130228
0.130152
0.130076
0.130002
0.129928
0.129855
0.129783
0.129711
0.129641
0.129571
0.129502
0.129433
0.129366
0.129299
0.129233
0.129168
0.129103
0.129039
0.128976
0.128914
0.128853
0.128792
0.128732
0.128672
0.128614
0.128556
0.128498
0.128442
0.128386
0.128331
0.128276
0.128223
0.128169
0.128117
0.128065
0.128013
0.127962
0.127912
0.127862
0.127813
0.127765
0.127717
0.127669
0.127622
0.127575
0.127529
0.127484
0.127439
0.127394
0.12735
0.127306
0.127263
0.12722
0.127178
0.127136
0.127095
0.127054
0.127013
0.126973
0.126933
0.126894
0.126855
0.126817
0.126779
0.126741
0.126704
0.126667
0.126631
0.126595
0.126559
0.126524
0.126489
0.126455
0.126421
0.126387
0.126354
0.126321
0.126288
0.126256
0.126224
0.126193
0.126161
0.126131
0.1261
0.126071
0.126041
0.126012
0.125983
0.125955
0.125927
0.1259
0.125873
0.125846
0.12582
0.125794
0.125769
0.125744
0.12572
0.125696
0.125672
0.125649
0.125627
0.125605
0.125583
0.125562
0.125542
0.125521
0.125502
0.125483
0.125464
0.125446
0.125428
0.125411
0.125395
0.125379
0.125363
0.125348
0.125334
0.12532
0.125307
0.125295
0.125283
0.125271
0.12526
0.12525
0.125241
0.125232
0.125223
0.125215
0.125208
0.125201
0.125195
0.12519
0.125185
0.12518
0.125177
0.125173
0.12517
0.125168
0.125166
0.125164
0.125163
0.125162
0.125161
0.12516
0.12516
0.125159
0.125159
0.125159
0.125159
0.1
0.0999767
0.0999536
0.0999322
0.099914
0.0999004
0.0998927
0.099892
0.0998993
0.0999151
0.0999397
0.0999733
0.100016
0.100067
0.100125
0.100191
0.100263
0.10034
0.100423
0.100508
0.100597
0.100689
0.100783
0.100879
0.100976
0.101076
0.101178
0.101283
0.101391
0.101503
0.10162
0.101742
0.101871
0.102006
0.102148
0.102299
0.102458
0.102625
0.102801
0.102986
0.10318
0.103383
0.103595
0.103815
0.104044
0.104281
0.104526
0.104779
0.105039
0.105306
0.105581
0.105863
0.106153
0.10645
0.106755
0.107067
0.107387
0.107716
0.108053
0.108399
0.108753
0.109117
0.10949
0.109872
0.110263
0.110664
0.111074
0.111494
0.111922
0.112359
0.112804
0.113258
0.113719
0.114187
0.114662
0.115143
0.11563
0.116122
0.116619
0.117119
0.117624
0.118131
0.118641
0.119153
0.119667
0.120181
0.120696
0.121212
0.121726
0.12224
0.122753
0.123264
0.123773
0.124279
0.124781
0.12528
0.125775
0.126265
0.12675
0.127229
0.127702
0.128169
0.128628
0.12908
0.129523
0.129958
0.130385
0.130801
0.131209
0.131606
0.131993
0.13237
0.132735
0.13309
0.133434
0.133766
0.134087
0.134397
0.134695
0.134982
0.135258
0.135522
0.135775
0.136017
0.136248
0.136468
0.136678
0.136877
0.137066
0.137245
0.137413
0.137572
0.137722
0.137862
0.137993
0.138115
0.138228
0.138333
0.138429
0.138517
0.138596
0.138668
0.138732
0.138789
0.138838
0.138879
0.138914
0.138941
0.138962
0.138976
0.138984
0.138986
0.138982
0.138971
0.138956
0.138934
0.138908
0.138877
0.13884
0.1388
0.138754
0.138705
0.138652
0.138594
0.138534
0.138469
0.138402
0.138332
0.138258
0.138182
0.138104
0.138022
0.137939
0.137854
0.137766
0.137676
0.137585
0.137492
0.137397
0.1373
0.137202
0.137103
0.137002
0.1369
0.136797
0.136693
0.136588
0.136482
0.136375
0.136267
0.136158
0.136049
0.13594
0.135829
0.135719
0.135608
0.135497
0.135386
0.135275
0.135164
0.135052
0.134941
0.134831
0.13472
0.13461
0.1345
0.134391
0.134282
0.134173
0.134065
0.133958
0.133851
0.133744
0.133639
0.133533
0.133429
0.133325
0.133222
0.133119
0.133017
0.132915
0.132815
0.132714
0.132615
0.132516
0.132418
0.132321
0.132224
0.132128
0.132033
0.131939
0.131845
0.131752
0.13166
0.131569
0.131478
0.131389
0.1313
0.131212
0.131125
0.131039
0.130954
0.13087
0.130787
0.130705
0.130623
0.130542
0.130463
0.130384
0.130306
0.130229
0.130152
0.130077
0.130002
0.129929
0.129856
0.129783
0.129712
0.129641
0.129571
0.129502
0.129434
0.129366
0.1293
0.129234
0.129168
0.129104
0.12904
0.128977
0.128915
0.128853
0.128792
0.128732
0.128673
0.128614
0.128556
0.128499
0.128442
0.128386
0.128331
0.128277
0.128223
0.128169
0.128117
0.128065
0.128013
0.127963
0.127912
0.127863
0.127813
0.127765
0.127717
0.127669
0.127622
0.127575
0.127529
0.127484
0.127438
0.127394
0.12735
0.127306
0.127263
0.12722
0.127177
0.127136
0.127094
0.127053
0.127013
0.126972
0.126933
0.126893
0.126855
0.126816
0.126778
0.12674
0.126703
0.126666
0.12663
0.126594
0.126558
0.126523
0.126488
0.126454
0.12642
0.126386
0.126352
0.126319
0.126287
0.126255
0.126223
0.126191
0.12616
0.126129
0.126099
0.126069
0.12604
0.126011
0.125982
0.125954
0.125926
0.125898
0.125871
0.125845
0.125818
0.125793
0.125767
0.125742
0.125718
0.125694
0.12567
0.125647
0.125625
0.125603
0.125581
0.12556
0.125539
0.125519
0.125499
0.12548
0.125462
0.125443
0.125426
0.125409
0.125392
0.125376
0.125361
0.125346
0.125331
0.125317
0.125304
0.125292
0.12528
0.125268
0.125257
0.125247
0.125237
0.125228
0.12522
0.125212
0.125205
0.125198
0.125192
0.125186
0.125181
0.125177
0.125173
0.12517
0.125167
0.125164
0.125162
0.12516
0.125159
0.125158
0.125157
0.125157
0.125156
0.125156
0.125155
0.125155
0.125155
0.1
0.0999768
0.0999538
0.0999324
0.0999142
0.0999006
0.099893
0.0998923
0.0998996
0.0999153
0.0999399
0.0999735
0.100016
0.100067
0.100125
0.100191
0.100263
0.10034
0.100422
0.100508
0.100596
0.100688
0.100781
0.100877
0.100975
0.101074
0.101176
0.101281
0.101389
0.101501
0.101618
0.10174
0.101868
0.102003
0.102145
0.102296
0.102454
0.102621
0.102797
0.102982
0.103176
0.103379
0.103591
0.103811
0.104039
0.104276
0.104521
0.104773
0.105033
0.105301
0.105576
0.105858
0.106147
0.106444
0.106749
0.107061
0.107382
0.10771
0.108047
0.108393
0.108748
0.109112
0.109485
0.109867
0.110259
0.11066
0.11107
0.11149
0.111919
0.112356
0.112802
0.113256
0.113717
0.114186
0.114662
0.115143
0.115631
0.116124
0.116621
0.117122
0.117627
0.118136
0.118646
0.119159
0.119673
0.120189
0.120705
0.121221
0.121736
0.122251
0.122765
0.123276
0.123786
0.124292
0.124796
0.125295
0.125791
0.126282
0.126767
0.127247
0.127721
0.128188
0.128647
0.1291
0.129544
0.129979
0.130406
0.130823
0.131231
0.131628
0.132015
0.132392
0.132758
0.133113
0.133457
0.133789
0.13411
0.13442
0.134718
0.135005
0.13528
0.135544
0.135797
0.136039
0.13627
0.13649
0.136699
0.136898
0.137087
0.137265
0.137434
0.137593
0.137742
0.137882
0.138012
0.138134
0.138247
0.138351
0.138447
0.138535
0.138614
0.138685
0.138749
0.138805
0.138854
0.138895
0.138929
0.138957
0.138977
0.138991
0.138999
0.139
0.138995
0.138985
0.138969
0.138947
0.138921
0.138889
0.138853
0.138811
0.138766
0.138716
0.138663
0.138605
0.138544
0.13848
0.138412
0.138342
0.138268
0.138192
0.138113
0.138032
0.137948
0.137862
0.137775
0.137685
0.137593
0.1375
0.137405
0.137308
0.13721
0.13711
0.13701
0.136908
0.136804
0.1367
0.136595
0.136488
0.136381
0.136273
0.136165
0.136055
0.135946
0.135835
0.135725
0.135614
0.135503
0.135392
0.13528
0.135169
0.135058
0.134947
0.134836
0.134725
0.134615
0.134505
0.134395
0.134286
0.134178
0.13407
0.133962
0.133855
0.133749
0.133643
0.133538
0.133433
0.133329
0.133226
0.133123
0.133021
0.132919
0.132818
0.132718
0.132619
0.13252
0.132422
0.132324
0.132228
0.132132
0.132036
0.131942
0.131848
0.131755
0.131663
0.131572
0.131481
0.131392
0.131303
0.131215
0.131128
0.131042
0.130957
0.130873
0.13079
0.130707
0.130626
0.130545
0.130465
0.130386
0.130308
0.130231
0.130155
0.130079
0.130005
0.129931
0.129858
0.129785
0.129714
0.129643
0.129573
0.129504
0.129436
0.129368
0.129301
0.129235
0.12917
0.129105
0.129041
0.128978
0.128916
0.128854
0.128793
0.128733
0.128674
0.128615
0.128557
0.1285
0.128443
0.128387
0.128332
0.128277
0.128223
0.12817
0.128117
0.128065
0.128014
0.127963
0.127912
0.127863
0.127813
0.127765
0.127717
0.127669
0.127622
0.127575
0.127529
0.127483
0.127438
0.127393
0.127349
0.127305
0.127262
0.127219
0.127176
0.127134
0.127093
0.127052
0.127011
0.126971
0.126931
0.126892
0.126853
0.126814
0.126776
0.126738
0.126701
0.126664
0.126628
0.126591
0.126556
0.12652
0.126485
0.126451
0.126417
0.126383
0.126349
0.126316
0.126283
0.126251
0.126219
0.126187
0.126156
0.126125
0.126095
0.126065
0.126035
0.126006
0.125977
0.125949
0.125921
0.125893
0.125866
0.125839
0.125813
0.125787
0.125762
0.125737
0.125712
0.125688
0.125664
0.125641
0.125618
0.125596
0.125574
0.125553
0.125532
0.125512
0.125492
0.125473
0.125454
0.125436
0.125418
0.125401
0.125384
0.125368
0.125352
0.125337
0.125323
0.125309
0.125296
0.125283
0.125271
0.125259
0.125248
0.125238
0.125228
0.125219
0.12521
0.125202
0.125195
0.125188
0.125182
0.125176
0.125171
0.125166
0.125162
0.125159
0.125156
0.125153
0.125151
0.125149
0.125148
0.125147
0.125146
0.125145
0.125145
0.125144
0.125144
0.125144
0.125144
0.1
0.0999769
0.0999539
0.0999326
0.0999145
0.099901
0.0998934
0.0998928
0.0999001
0.0999158
0.0999403
0.0999738
0.100016
0.100067
0.100125
0.10019
0.100262
0.100339
0.100421
0.100506
0.100595
0.100686
0.100779
0.100875
0.100972
0.101071
0.101173
0.101277
0.101385
0.101497
0.101613
0.101735
0.101863
0.101998
0.10214
0.10229
0.102448
0.102615
0.102791
0.102976
0.103169
0.103372
0.103583
0.103803
0.104031
0.104268
0.104512
0.104765
0.105024
0.105292
0.105566
0.105848
0.106138
0.106435
0.106739
0.107052
0.107372
0.107701
0.108038
0.108384
0.108739
0.109103
0.109476
0.109859
0.110251
0.110653
0.111064
0.111484
0.111913
0.112352
0.112798
0.113253
0.113715
0.114185
0.114661
0.115144
0.115632
0.116126
0.116625
0.117127
0.117633
0.118143
0.118655
0.119169
0.119684
0.120201
0.120718
0.121236
0.121753
0.122269
0.122784
0.123297
0.123808
0.124315
0.12482
0.125321
0.125818
0.12631
0.126796
0.127277
0.127752
0.12822
0.12868
0.129133
0.129578
0.130014
0.130441
0.130859
0.131267
0.131665
0.132052
0.132429
0.132795
0.13315
0.133494
0.133827
0.134148
0.134457
0.134756
0.135042
0.135318
0.135581
0.135834
0.136076
0.136306
0.136526
0.136735
0.136933
0.137122
0.1373
0.137468
0.137626
0.137775
0.137914
0.138044
0.138166
0.138278
0.138382
0.138477
0.138564
0.138643
0.138714
0.138777
0.138833
0.138881
0.138921
0.138955
0.138982
0.139002
0.139016
0.139023
0.139023
0.139018
0.139007
0.138991
0.138969
0.138942
0.13891
0.138873
0.138831
0.138786
0.138735
0.138681
0.138624
0.138562
0.138498
0.13843
0.138359
0.138285
0.138208
0.138129
0.138047
0.137963
0.137877
0.137789
0.137699
0.137607
0.137513
0.137418
0.137321
0.137223
0.137123
0.137022
0.13692
0.136816
0.136712
0.136606
0.136499
0.136392
0.136284
0.136175
0.136066
0.135956
0.135845
0.135735
0.135623
0.135512
0.135401
0.135289
0.135178
0.135067
0.134955
0.134844
0.134734
0.134623
0.134513
0.134403
0.134294
0.134185
0.134077
0.13397
0.133862
0.133756
0.13365
0.133545
0.13344
0.133336
0.133232
0.133129
0.133027
0.132926
0.132825
0.132724
0.132625
0.132526
0.132428
0.13233
0.132233
0.132137
0.132042
0.131947
0.131854
0.131761
0.131668
0.131577
0.131487
0.131397
0.131308
0.13122
0.131133
0.131047
0.130962
0.130878
0.130794
0.130712
0.13063
0.130549
0.130469
0.13039
0.130312
0.130235
0.130159
0.130083
0.130008
0.129934
0.129861
0.129789
0.129717
0.129647
0.129577
0.129507
0.129439
0.129371
0.129304
0.129238
0.129173
0.129108
0.129044
0.128981
0.128918
0.128856
0.128795
0.128735
0.128676
0.128617
0.128559
0.128501
0.128445
0.128388
0.128333
0.128278
0.128224
0.128171
0.128118
0.128066
0.128014
0.127963
0.127913
0.127863
0.127813
0.127764
0.127716
0.127668
0.127621
0.127574
0.127528
0.127482
0.127437
0.127392
0.127347
0.127303
0.12726
0.127217
0.127174
0.127132
0.12709
0.127049
0.127008
0.126968
0.126928
0.126889
0.126849
0.126811
0.126772
0.126735
0.126697
0.12666
0.126623
0.126587
0.126551
0.126516
0.12648
0.126446
0.126411
0.126377
0.126344
0.12631
0.126277
0.126245
0.126213
0.126181
0.126149
0.126118
0.126088
0.126058
0.126028
0.125998
0.125969
0.125941
0.125912
0.125885
0.125857
0.12583
0.125804
0.125778
0.125752
0.125727
0.125702
0.125678
0.125654
0.125631
0.125608
0.125585
0.125563
0.125542
0.125521
0.1255
0.12548
0.125461
0.125442
0.125423
0.125405
0.125388
0.125371
0.125354
0.125338
0.125323
0.125308
0.125294
0.125281
0.125268
0.125255
0.125244
0.125232
0.125222
0.125212
0.125202
0.125194
0.125185
0.125178
0.125171
0.125165
0.125159
0.125153
0.125149
0.125145
0.125141
0.125138
0.125135
0.125133
0.125131
0.125129
0.125128
0.125127
0.125126
0.125126
0.125125
0.125125
0.125125
0.125125
0.1
0.099977
0.0999542
0.099933
0.099915
0.0999016
0.0998941
0.0998935
0.0999007
0.0999164
0.0999409
0.0999742
0.100016
0.100067
0.100125
0.10019
0.100261
0.100338
0.100419
0.100504
0.100593
0.100683
0.100776
0.100871
0.100968
0.101067
0.101168
0.101272
0.10138
0.101491
0.101607
0.101729
0.101856
0.101991
0.102133
0.102282
0.10244
0.102607
0.102782
0.102966
0.10316
0.103362
0.103573
0.103792
0.10402
0.104256
0.104501
0.104752
0.105012
0.105279
0.105553
0.105835
0.106124
0.106421
0.106726
0.107038
0.107359
0.107687
0.108025
0.108371
0.108726
0.109091
0.109464
0.109848
0.110241
0.110643
0.111055
0.111476
0.111906
0.112345
0.112793
0.113248
0.113712
0.114183
0.114661
0.115145
0.115635
0.11613
0.11663
0.117134
0.117642
0.118153
0.118667
0.119182
0.1197
0.120218
0.120738
0.121257
0.121776
0.122294
0.122811
0.123325
0.123838
0.124348
0.124854
0.125357
0.125855
0.126349
0.126837
0.127319
0.127795
0.128264
0.128726
0.12918
0.129626
0.130063
0.130491
0.130909
0.131318
0.131716
0.132104
0.132482
0.132848
0.133203
0.133547
0.13388
0.134201
0.13451
0.134808
0.135095
0.13537
0.135633
0.135886
0.136127
0.136357
0.136576
0.136785
0.136983
0.137171
0.137348
0.137515
0.137673
0.137821
0.13796
0.138089
0.13821
0.138322
0.138425
0.138519
0.138605
0.138684
0.138754
0.138816
0.138871
0.138918
0.138958
0.138991
0.139018
0.139037
0.13905
0.139056
0.139056
0.13905
0.139039
0.139022
0.138999
0.138971
0.138939
0.138901
0.138859
0.138813
0.138762
0.138708
0.138649
0.138587
0.138522
0.138454
0.138382
0.138308
0.138231
0.138151
0.138069
0.137985
0.137898
0.137809
0.137719
0.137627
0.137532
0.137437
0.137339
0.137241
0.137141
0.137039
0.136936
0.136833
0.136728
0.136622
0.136515
0.136407
0.136299
0.13619
0.13608
0.13597
0.135859
0.135748
0.135637
0.135525
0.135414
0.135302
0.13519
0.135079
0.134967
0.134856
0.134745
0.134634
0.134524
0.134414
0.134305
0.134196
0.134088
0.13398
0.133873
0.133766
0.13366
0.133554
0.133449
0.133345
0.133241
0.133138
0.133036
0.132934
0.132833
0.132733
0.132633
0.132534
0.132436
0.132338
0.132241
0.132145
0.13205
0.131955
0.131861
0.131768
0.131676
0.131584
0.131494
0.131404
0.131315
0.131227
0.13114
0.131054
0.130968
0.130884
0.1308
0.130718
0.130636
0.130555
0.130475
0.130396
0.130318
0.13024
0.130164
0.130088
0.130013
0.129939
0.129866
0.129793
0.129722
0.129651
0.129581
0.129511
0.129443
0.129375
0.129308
0.129242
0.129176
0.129111
0.129047
0.128984
0.128921
0.128859
0.128798
0.128738
0.128678
0.128619
0.128561
0.128503
0.128446
0.12839
0.128334
0.12828
0.128225
0.128172
0.128119
0.128066
0.128014
0.127963
0.127913
0.127862
0.127813
0.127764
0.127715
0.127667
0.12762
0.127573
0.127526
0.12748
0.127435
0.12739
0.127345
0.127301
0.127257
0.127214
0.127171
0.127129
0.127087
0.127045
0.127004
0.126964
0.126924
0.126884
0.126844
0.126806
0.126767
0.126729
0.126691
0.126654
0.126617
0.12658
0.126544
0.126508
0.126473
0.126438
0.126403
0.126369
0.126335
0.126302
0.126268
0.126236
0.126203
0.126171
0.126139
0.126108
0.126077
0.126047
0.126017
0.125987
0.125958
0.125929
0.1259
0.125872
0.125844
0.125817
0.12579
0.125764
0.125738
0.125713
0.125688
0.125663
0.125639
0.125615
0.125592
0.125569
0.125547
0.125525
0.125504
0.125483
0.125463
0.125443
0.125423
0.125405
0.125386
0.125368
0.125351
0.125335
0.125318
0.125303
0.125288
0.125273
0.125259
0.125246
0.125234
0.125221
0.12521
0.125199
0.125189
0.125179
0.12517
0.125162
0.125154
0.125147
0.12514
0.125134
0.125128
0.125123
0.125119
0.125115
0.125112
0.125109
0.125106
0.125104
0.125103
0.125101
0.1251
0.125099
0.125099
0.125098
0.125098
0.125097
0.125097
0.1
0.0999772
0.0999545
0.0999335
0.0999156
0.0999023
0.0998949
0.0998943
0.0999016
0.0999172
0.0999415
0.0999747
0.100017
0.100067
0.100124
0.100189
0.10026
0.100336
0.100417
0.100502
0.10059
0.10068
0.100772
0.100866
0.100963
0.101061
0.101162
0.101266
0.101373
0.101484
0.101599
0.101721
0.101848
0.101982
0.102123
0.102272
0.10243
0.102596
0.102771
0.102955
0.103147
0.103349
0.103559
0.103778
0.104006
0.104242
0.104485
0.104737
0.104996
0.105262
0.105536
0.105818
0.106107
0.106404
0.106708
0.10702
0.107341
0.10767
0.108008
0.108354
0.10871
0.109075
0.109449
0.109833
0.110227
0.11063
0.111043
0.111465
0.111896
0.112337
0.112786
0.113243
0.113708
0.11418
0.11466
0.115145
0.115637
0.116134
0.116636
0.117143
0.117653
0.118166
0.118682
0.1192
0.11972
0.120241
0.120762
0.121284
0.121805
0.122326
0.122845
0.123362
0.123877
0.124389
0.124898
0.125403
0.125903
0.126399
0.126889
0.127373
0.127851
0.128322
0.128785
0.12924
0.129688
0.130126
0.130555
0.130974
0.131384
0.131783
0.132171
0.132549
0.132916
0.133271
0.133615
0.133948
0.134269
0.134578
0.134876
0.135162
0.135437
0.1357
0.135952
0.136193
0.136423
0.136641
0.136849
0.137046
0.137233
0.13741
0.137577
0.137734
0.137881
0.138019
0.138147
0.138267
0.138378
0.13848
0.138573
0.138659
0.138736
0.138805
0.138866
0.13892
0.138967
0.139006
0.139038
0.139063
0.139082
0.139093
0.139099
0.139098
0.139092
0.139079
0.139061
0.139038
0.139009
0.138976
0.138938
0.138895
0.138848
0.138796
0.138741
0.138682
0.13862
0.138554
0.138484
0.138412
0.138337
0.13826
0.138179
0.138097
0.138012
0.137925
0.137835
0.137744
0.137651
0.137557
0.137461
0.137363
0.137264
0.137163
0.137061
0.136958
0.136854
0.136748
0.136642
0.136535
0.136427
0.136318
0.136208
0.136098
0.135988
0.135877
0.135765
0.135654
0.135542
0.13543
0.135318
0.135206
0.135094
0.134983
0.134871
0.13476
0.134649
0.134538
0.134428
0.134319
0.13421
0.134101
0.133993
0.133886
0.133779
0.133672
0.133567
0.133461
0.133357
0.133253
0.13315
0.133047
0.132945
0.132844
0.132744
0.132644
0.132545
0.132446
0.132348
0.132251
0.132155
0.132059
0.131964
0.13187
0.131777
0.131685
0.131593
0.131502
0.131412
0.131323
0.131235
0.131148
0.131062
0.130976
0.130892
0.130808
0.130725
0.130643
0.130562
0.130482
0.130403
0.130324
0.130247
0.13017
0.130094
0.130019
0.129945
0.129872
0.129799
0.129727
0.129656
0.129586
0.129516
0.129447
0.129379
0.129312
0.129246
0.12918
0.129115
0.129051
0.128987
0.128924
0.128862
0.128801
0.12874
0.12868
0.128621
0.128563
0.128505
0.128448
0.128391
0.128336
0.128281
0.128226
0.128172
0.128119
0.128066
0.128014
0.127963
0.127912
0.127862
0.127812
0.127762
0.127714
0.127665
0.127618
0.12757
0.127524
0.127477
0.127432
0.127386
0.127341
0.127297
0.127253
0.127209
0.127166
0.127124
0.127081
0.12704
0.126998
0.126957
0.126917
0.126877
0.126837
0.126798
0.126759
0.126721
0.126683
0.126645
0.126608
0.126571
0.126535
0.126498
0.126463
0.126427
0.126392
0.126358
0.126324
0.12629
0.126256
0.126223
0.12619
0.126158
0.126126
0.126094
0.126063
0.126032
0.126002
0.125972
0.125942
0.125913
0.125884
0.125855
0.125827
0.1258
0.125772
0.125746
0.125719
0.125694
0.125668
0.125643
0.125619
0.125594
0.125571
0.125548
0.125525
0.125503
0.125481
0.12546
0.125439
0.125419
0.125399
0.12538
0.125361
0.125343
0.125325
0.125308
0.125292
0.125276
0.12526
0.125246
0.125231
0.125218
0.125205
0.125192
0.12518
0.125169
0.125158
0.125148
0.125139
0.12513
0.125122
0.125114
0.125107
0.125101
0.125095
0.12509
0.125085
0.125081
0.125077
0.125074
0.125071
0.125069
0.125067
0.125066
0.125065
0.125064
0.125063
0.125062
0.125062
0.125061
0.125061
0.1
0.0999774
0.0999549
0.0999341
0.0999164
0.0999032
0.0998959
0.0998954
0.0999026
0.0999181
0.0999424
0.0999753
0.100017
0.100067
0.100124
0.100188
0.100259
0.100335
0.100415
0.100499
0.100586
0.100675
0.100767
0.100861
0.100957
0.101054
0.101155
0.101258
0.101364
0.101475
0.10159
0.10171
0.101837
0.101971
0.102111
0.10226
0.102417
0.102582
0.102757
0.10294
0.103132
0.103333
0.103543
0.103761
0.103988
0.104223
0.104466
0.104717
0.104976
0.105242
0.105516
0.105797
0.106086
0.106382
0.106686
0.106999
0.107319
0.107648
0.107986
0.108333
0.10869
0.109055
0.10943
0.109815
0.11021
0.110614
0.111028
0.111451
0.111884
0.112326
0.112777
0.113235
0.113702
0.114177
0.114658
0.115146
0.11564
0.11614
0.116644
0.117153
0.117665
0.118181
0.1187
0.119221
0.119744
0.120268
0.120792
0.121317
0.121842
0.122365
0.122887
0.123408
0.123925
0.12444
0.124952
0.12546
0.125963
0.126461
0.126953
0.12744
0.127919
0.128392
0.128857
0.129315
0.129763
0.130203
0.130633
0.131054
0.131464
0.131864
0.132253
0.132632
0.132999
0.133354
0.133699
0.134031
0.134352
0.134662
0.134959
0.135245
0.13552
0.135782
0.136034
0.136274
0.136503
0.136721
0.136928
0.137124
0.13731
0.137486
0.137652
0.137807
0.137954
0.13809
0.138218
0.138336
0.138446
0.138547
0.138639
0.138723
0.138799
0.138868
0.138928
0.138981
0.139026
0.139064
0.139095
0.139119
0.139136
0.139147
0.139151
0.13915
0.139142
0.139128
0.139109
0.139085
0.139056
0.139021
0.138982
0.138938
0.13889
0.138838
0.138782
0.138722
0.138659
0.138592
0.138522
0.138449
0.138373
0.138295
0.138214
0.13813
0.138045
0.137957
0.137867
0.137775
0.137682
0.137586
0.13749
0.137391
0.137291
0.13719
0.137088
0.136984
0.136879
0.136773
0.136666
0.136559
0.13645
0.136341
0.136231
0.13612
0.136009
0.135898
0.135786
0.135674
0.135562
0.13545
0.135337
0.135225
0.135113
0.135001
0.134889
0.134778
0.134666
0.134556
0.134445
0.134335
0.134226
0.134117
0.134009
0.133901
0.133794
0.133687
0.133581
0.133476
0.133371
0.133267
0.133164
0.133061
0.132959
0.132857
0.132756
0.132656
0.132557
0.132458
0.13236
0.132263
0.132166
0.132071
0.131976
0.131881
0.131788
0.131695
0.131603
0.131513
0.131422
0.131333
0.131245
0.131157
0.131071
0.130985
0.1309
0.130817
0.130734
0.130652
0.13057
0.13049
0.130411
0.130332
0.130254
0.130177
0.130101
0.130026
0.129952
0.129878
0.129805
0.129733
0.129662
0.129591
0.129521
0.129452
0.129384
0.129317
0.12925
0.129184
0.129119
0.129054
0.12899
0.128927
0.128865
0.128804
0.128743
0.128683
0.128623
0.128564
0.128506
0.128449
0.128392
0.128336
0.128281
0.128226
0.128172
0.128118
0.128066
0.128013
0.127961
0.12791
0.12786
0.127809
0.12776
0.127711
0.127662
0.127614
0.127567
0.127519
0.127473
0.127427
0.127381
0.127336
0.127291
0.127247
0.127203
0.127159
0.127116
0.127074
0.127032
0.12699
0.126949
0.126908
0.126868
0.126828
0.126788
0.126749
0.12671
0.126672
0.126634
0.126596
0.126559
0.126522
0.126485
0.126449
0.126413
0.126378
0.126343
0.126308
0.126274
0.12624
0.126206
0.126173
0.12614
0.126108
0.126076
0.126044
0.126013
0.125982
0.125952
0.125921
0.125892
0.125862
0.125833
0.125805
0.125777
0.125749
0.125722
0.125695
0.125669
0.125643
0.125618
0.125593
0.125568
0.125544
0.12552
0.125497
0.125474
0.125452
0.125431
0.125409
0.125389
0.125368
0.125349
0.125329
0.125311
0.125293
0.125275
0.125258
0.125242
0.125226
0.12521
0.125196
0.125181
0.125168
0.125155
0.125143
0.125131
0.12512
0.125109
0.125099
0.12509
0.125082
0.125074
0.125066
0.125059
0.125053
0.125048
0.125042
0.125038
0.125034
0.125031
0.125028
0.125025
0.125023
0.125021
0.12502
0.125019
0.125018
0.125017
0.125016
0.125016
0.125016
0.1
0.0999776
0.0999553
0.0999348
0.0999173
0.0999043
0.099897
0.0998966
0.0999038
0.0999193
0.0999433
0.0999761
0.100017
0.100067
0.100124
0.100187
0.100257
0.100332
0.100412
0.100495
0.100581
0.10067
0.100761
0.100854
0.100949
0.101046
0.101146
0.101248
0.101354
0.101464
0.101578
0.101698
0.101825
0.101957
0.102097
0.102245
0.102402
0.102566
0.10274
0.102923
0.103114
0.103314
0.103523
0.103741
0.103967
0.104202
0.104444
0.104694
0.104952
0.105218
0.105491
0.105772
0.10606
0.106356
0.10666
0.106973
0.107294
0.107623
0.107961
0.108309
0.108665
0.109032
0.109408
0.109793
0.110189
0.110595
0.11101
0.111435
0.11187
0.112313
0.112766
0.113227
0.113696
0.114172
0.114656
0.115147
0.115643
0.116146
0.116653
0.117165
0.117681
0.1182
0.118722
0.119246
0.119772
0.1203
0.120828
0.121356
0.121884
0.122411
0.122937
0.123461
0.123982
0.124501
0.125016
0.125526
0.126033
0.126534
0.127029
0.127518
0.128001
0.128476
0.128943
0.129402
0.129853
0.130294
0.130726
0.131148
0.131559
0.13196
0.13235
0.132729
0.133097
0.133453
0.133797
0.13413
0.134451
0.13476
0.135058
0.135343
0.135617
0.135879
0.13613
0.136369
0.136597
0.136814
0.13702
0.137216
0.137401
0.137575
0.13774
0.137895
0.13804
0.138175
0.138301
0.138418
0.138527
0.138626
0.138717
0.1388
0.138875
0.138941
0.139
0.139051
0.139095
0.139132