# vtk DataFile Version 3.0
LBM Fluid Grid
ASCII
DATASET STRUCTURED_POINTS
DIMENSIONS 400 150 1
ORIGIN 0 0 0
SPACING 1 1 1
POINT_DATA 60000
SCALARS VelocityMagnitude double 1
LOOKUP_TABLE default
0.1
0.100011
0.100024
0.100038
0.100053
0.100069
0.100087
0.100107
0.100129
0.100155
0.100184
0.100216
0.100254
0.100296
0.100344
0.100397
0.100455
0.10052
0.100591
0.100667
0.100749
0.100836
0.100929
0.101027
0.101129
0.101237
0.101349
0.101466
0.101587
0.101712
0.101842
0.101977
0.102117
0.102261
0.102411
0.102566
0.102728
0.102895
0.103069
0.103251
0.103439
0.103635
0.103838
0.104049
0.104269
0.104497
0.104733
0.104978
0.105231
0.105492
0.105763
0.106041
0.106328
0.106624
0.106928
0.10724
0.107561
0.10789
0.108228
0.108574
0.108928
0.109291
0.109662
0.110041
0.110429
0.110825
0.11123
0.111642
0.112063
0.112492
0.112929
0.113373
0.113825
0.114284
0.11475
0.115222
0.115701
0.116185
0.116674
0.117169
0.117668
0.11817
0.118676
0.119184
0.119695
0.120207
0.12072
0.121234
0.121747
0.12226
0.122771
0.12328
0.123787
0.124291
0.124792
0.125288
0.12578
0.126267
0.126748
0.127224
0.127693
0.128155
0.12861
0.129057
0.129497
0.129928
0.13035
0.130763
0.131167
0.131561
0.131946
0.13232
0.132684
0.133038
0.133381
0.133713
0.134035
0.134345
0.134645
0.134933
0.13521
0.135476
0.135731
0.135976
0.136209
0.136431
0.136643
0.136844
0.137035
0.137215
0.137385
0.137545
0.137696
0.137837
0.137968
0.138091
0.138204
0.138309
0.138405
0.138492
0.138572
0.138644
0.138707
0.138764
0.138813
0.138855
0.13889
0.138918
0.13894
0.138956
0.138965
0.138969
0.138966
0.138958
0.138945
0.138926
0.138902
0.138873
0.13884
0.138802
0.138759
0.138713
0.138662
0.138607
0.138549
0.138487
0.138421
0.138353
0.138281
0.138206
0.138129
0.138049
0.137966
0.137882
0.137794
0.137705
0.137614
0.137521
0.137427
0.137331
0.137233
0.137134
0.137033
0.136932
0.136829
0.136725
0.136621
0.136515
0.136409
0.136302
0.136194
0.136086
0.135977
0.135868
0.135758
0.135649
0.135538
0.135428
0.135317
0.135207
0.135096
0.134985
0.134874
0.134764
0.134654
0.134543
0.134434
0.134324
0.134215
0.134106
0.133998
0.13389
0.133782
0.133676
0.133569
0.133464
0.133359
0.133254
0.13315
0.133047
0.132945
0.132843
0.132742
0.132642
0.132543
0.132444
0.132346
0.132249
0.132152
0.132057
0.131962
0.131868
0.131774
0.131682
0.13159
0.131499
0.131409
0.13132
0.131231
0.131144
0.131057
0.130971
0.130886
0.130802
0.130718
0.130636
0.130554
0.130473
0.130393
0.130314
0.130236
0.130158
0.130082
0.130006
0.129931
0.129857
0.129784
0.129712
0.12964
0.129569
0.129499
0.12943
0.129361
0.129294
0.129227
0.12916
0.129095
0.12903
0.128966
0.128903
0.12884
0.128778
0.128717
0.128656
0.128596
0.128537
0.128479
0.128421
0.128364
0.128307
0.128251
0.128196
0.128141
0.128088
0.128034
0.127981
0.127929
0.127878
0.127827
0.127777
0.127727
0.127678
0.127629
0.127581
0.127534
0.127487
0.12744
0.127394
0.127349
0.127304
0.127259
0.127215
0.127172
0.127129
0.127087
0.127044
0.127003
0.126962
0.126921
0.126881
0.126841
0.126802
0.126763
0.126725
0.126687
0.12665
0.126613
0.126576
0.12654
0.126504
0.126469
0.126434
0.1264
0.126366
0.126332
0.126299
0.126266
0.126234
0.126202
0.12617
0.126139
0.126109
0.126078
0.126048
0.126019
0.12599
0.125961
0.125933
0.125905
0.125878
0.125851
0.125825
0.125799
0.125773
0.125748
0.125723
0.125699
0.125675
0.125652
0.125629
0.125606
0.125584
0.125563
0.125542
0.125522
0.125502
0.125482
0.125463
0.125445
0.125427
0.125409
0.125392
0.125376
0.12536
0.125345
0.12533
0.125316
0.125302
0.125289
0.125277
0.125265
0.125253
0.125243
0.125232
0.125223
0.125214
0.125205
0.125197
0.12519
0.125183
0.125177
0.125171
0.125166
0.125161
0.125157
0.125154
0.12515
0.125147
0.125145
0.125143
0.125141
0.12514
0.125139
0.125138
0.125137
0.125136
0.125135
0.125135
0.125134
0.125134
0.1
0.100011
0.100024
0.100038
0.100053
0.100069
0.100087
0.100107
0.100129
0.100155
0.100184
0.100217
0.100254
0.100296
0.100344
0.100397
0.100456
0.10052
0.100591
0.100667
0.100749
0.100837
0.100929
0.101027
0.10113
0.101238
0.10135
0.101466
0.101588
0.101713
0.101843
0.101978
0.102118
0.102262
0.102412
0.102568
0.102729
0.102897
0.103071
0.103252
0.10344
0.103636
0.10384
0.104051
0.104271
0.104499
0.104735
0.104979
0.105233
0.105494
0.105765
0.106043
0.10633
0.106626
0.10693
0.107242
0.107563
0.107892
0.10823
0.108576
0.10893
0.109293
0.109664
0.110043
0.110431
0.110827
0.111231
0.111644
0.112064
0.112493
0.11293
0.113374
0.113826
0.114284
0.11475
0.115222
0.1157
0.116185
0.116674
0.117168
0.117666
0.118169
0.118674
0.119182
0.119693
0.120204
0.120717
0.121231
0.121744
0.122256
0.122767
0.123276
0.123783
0.124287
0.124787
0.125283
0.125775
0.126262
0.126743
0.127218
0.127687
0.128149
0.128604
0.129051
0.12949
0.129921
0.130343
0.130756
0.13116
0.131554
0.131939
0.132313
0.132677
0.133031
0.133374
0.133706
0.134027
0.134338
0.134637
0.134925
0.135203
0.135469
0.135724
0.135968
0.136202
0.136424
0.136636
0.136837
0.137028
0.137208
0.137378
0.137539
0.137689
0.13783
0.137962
0.138084
0.138198
0.138302
0.138399
0.138486
0.138566
0.138638
0.138702
0.138758
0.138808
0.13885
0.138885
0.138913
0.138935
0.138951
0.13896
0.138964
0.138962
0.138954
0.13894
0.138922
0.138898
0.138869
0.138836
0.138798
0.138755
0.138709
0.138658
0.138603
0.138545
0.138483
0.138418
0.138349
0.138278
0.138203
0.138126
0.138046
0.137963
0.137879
0.137792
0.137702
0.137611
0.137519
0.137424
0.137328
0.13723
0.137131
0.137031
0.136929
0.136827
0.136723
0.136619
0.136513
0.136407
0.1363
0.136192
0.136084
0.135975
0.135866
0.135757
0.135647
0.135536
0.135426
0.135315
0.135205
0.135094
0.134983
0.134873
0.134762
0.134652
0.134542
0.134432
0.134322
0.134213
0.134104
0.133996
0.133888
0.133781
0.133674
0.133568
0.133462
0.133357
0.133253
0.133149
0.133046
0.132944
0.132842
0.132741
0.132641
0.132541
0.132443
0.132345
0.132248
0.132151
0.132055
0.131961
0.131866
0.131773
0.131681
0.131589
0.131498
0.131408
0.131319
0.13123
0.131143
0.131056
0.13097
0.130885
0.130801
0.130717
0.130635
0.130553
0.130472
0.130392
0.130313
0.130235
0.130158
0.130081
0.130005
0.129931
0.129857
0.129783
0.129711
0.129639
0.129569
0.129499
0.129429
0.129361
0.129293
0.129226
0.12916
0.129094
0.12903
0.128966
0.128902
0.12884
0.128778
0.128716
0.128656
0.128596
0.128537
0.128478
0.128421
0.128363
0.128307
0.128251
0.128196
0.128141
0.128087
0.128034
0.127981
0.127929
0.127878
0.127827
0.127777
0.127727
0.127678
0.127629
0.127581
0.127534
0.127487
0.12744
0.127394
0.127349
0.127304
0.12726
0.127216
0.127172
0.127129
0.127087
0.127045
0.127003
0.126962
0.126922
0.126882
0.126842
0.126803
0.126764
0.126726
0.126688
0.12665
0.126613
0.126577
0.126541
0.126505
0.12647
0.126435
0.126401
0.126367
0.126333
0.1263
0.126267
0.126235
0.126203
0.126172
0.12614
0.12611
0.12608
0.12605
0.12602
0.125991
0.125963
0.125935
0.125907
0.12588
0.125853
0.125826
0.1258
0.125775
0.12575
0.125725
0.125701
0.125677
0.125654
0.125631
0.125608
0.125587
0.125565
0.125544
0.125524
0.125504
0.125484
0.125465
0.125447
0.125429
0.125412
0.125395
0.125379
0.125363
0.125347
0.125333
0.125319
0.125305
0.125292
0.12528
0.125268
0.125256
0.125246
0.125235
0.125226
0.125217
0.125208
0.125201
0.125193
0.125186
0.12518
0.125175
0.125169
0.125165
0.125161
0.125157
0.125154
0.125151
0.125149
0.125147
0.125145
0.125144
0.125142
0.125141
0.125141
0.12514
0.125139
0.125138
0.125138
0.125138
0.1
0.100011
0.100024
0.100038
0.100053
0.100069
0.100087
0.100107
0.100129
0.100155
0.100184
0.100216
0.100254
0.100296
0.100344
0.100397
0.100455
0.10052
0.100591
0.100667
0.100749
0.100836
0.100929
0.101027
0.101129
0.101237
0.101349
0.101466
0.101587
0.101712
0.101842
0.101977
0.102117
0.102261
0.102411
0.102566
0.102728
0.102895
0.103069
0.103251
0.103439
0.103635
0.103838
0.104049
0.104269
0.104497
0.104733
0.104978
0.105231
0.105492
0.105763
0.106041
0.106328
0.106624
0.106928
0.10724
0.107561
0.10789
0.108228
0.108574
0.108928
0.109291
0.109662
0.110041
0.110429
0.110825
0.11123
0.111642
0.112063
0.112492
0.112929
0.113373
0.113825
0.114284
0.11475
0.115222
0.115701
0.116185
0.116674
0.117169
0.117668
0.11817
0.118676
0.119184
0.119695
0.120207
0.12072
0.121234
0.121747
0.12226
0.122771
0.12328
0.123787
0.124291
0.124792
0.125288
0.12578
0.126267
0.126748
0.127224
0.127693
0.128155
0.12861
0.129057
0.129497
0.129928
0.13035
0.130763
0.131167
0.131561
0.131946
0.13232
0.132684
0.133038
0.133381
0.133713
0.134035
0.134345
0.134645
0.134933
0.13521
0.135476
0.135731
0.135976
0.136209
0.136431
0.136643
0.136844
0.137035
0.137215
0.137385
0.137545
0.137696
0.137837
0.137968
0.138091
0.138204
0.138309
0.138405
0.138492
0.138572
0.138644
0.138707
0.138764
0.138813
0.138855
0.13889
0.138918
0.13894
0.138956
0.138965
0.138969
0.138966
0.138958
0.138945
0.138926
0.138902
0.138873
0.13884
0.138802
0.138759
0.138713
0.138662
0.138607
0.138549
0.138487
0.138421
0.138353
0.138281
0.138206
0.138129
0.138049
0.137966
0.137882
0.137794
0.137705
0.137614
0.137521
0.137427
0.137331
0.137233
0.137134
0.137033
0.136932
0.136829
0.136725
0.136621
0.136515
0.136409
0.136302
0.136194
0.136086
0.135977
0.135868
0.135758
0.135649
0.135538
0.135428
0.135317
0.135207
0.135096
0.134985
0.134874
0.134764
0.134654
0.134543
0.134434
0.134324
0.134215
0.134106
0.133998
0.13389
0.133782
0.133676
0.133569
0.133464
0.133359
0.133254
0.13315
0.133047
0.132945
0.132843
0.132742
0.132642
0.132543
0.132444
0.132346
0.132249
0.132152
0.132057
0.131962
0.131868
0.131774
0.131682
0.13159
0.131499
0.131409
0.13132
0.131231
0.131144
0.131057
0.130971
0.130886
0.130802
0.130718
0.130636
0.130554
0.130473
0.130393
0.130314
0.130236
0.130158
0.130082
0.130006
0.129931
0.129857
0.129784
0.129712
0.12964
0.129569
0.129499
0.12943
0.129361
0.129294
0.129227
0.12916
0.129095
0.12903
0.128966
0.128903
0.12884
0.128778
0.128717
0.128656
0.128596
0.128537
0.128479
0.128421
0.128364
0.128307
0.128251
0.128196
0.128141
0.128087
0.128034
0.127981
0.127929
0.127878
0.127827
0.127777
0.127727
0.127678
0.127629
0.127581
0.127533
0.127487
0.12744
0.127394
0.127349
0.127304
0.127259
0.127215
0.127172
0.127129
0.127086
0.127044
0.127003
0.126962
0.126921
0.126881
0.126841
0.126802
0.126763
0.126725
0.126687
0.12665
0.126613
0.126576
0.12654
0.126504
0.126469
0.126434
0.1264
0.126366
0.126332
0.126299
0.126266
0.126234
0.126202
0.12617
0.126139
0.126109
0.126078
0.126048
0.126019
0.12599
0.125961
0.125933
0.125905
0.125878
0.125851
0.125825
0.125799
0.125773
0.125748
0.125723
0.125699
0.125675
0.125652
0.125629
0.125606
0.125584
0.125563
0.125542
0.125522
0.125502
0.125482
0.125463
0.125445
0.125427
0.125409
0.125392
0.125376
0.12536
0.125345
0.12533
0.125316
0.125302
0.125289
0.125277
0.125265
0.125253
0.125243
0.125232
0.125223
0.125214
0.125205
0.125197
0.12519
0.125183
0.125177
0.125171
0.125166
0.125161
0.125157
0.125154
0.12515
0.125147
0.125145
0.125143
0.125141
0.12514
0.125139
0.125138
0.125137
0.125136
0.125135
0.125135
0.125134
0.125134
0.1
0.100011
0.100024
0.100038
0.100053
0.100069
0.100087
0.100107
0.100129
0.100154
0.100183
0.100216
0.100253
0.100296
0.100343
0.100396
0.100455
0.100519
0.10059
0.100666
0.100747
0.100835
0.100927
0.101025
0.101128
0.101235
0.101347
0.101463
0.101584
0.10171
0.101839
0.101974
0.102113
0.102258
0.102407
0.102563
0.102724
0.102891
0.103065
0.103246
0.103434
0.10363
0.103833
0.104044
0.104264
0.104491
0.104727
0.104972
0.105225
0.105487
0.105757
0.106035
0.106322
0.106618
0.106922
0.107234
0.107555
0.107884
0.108222
0.108568
0.108922
0.109285
0.109656
0.110036
0.110424
0.11082
0.111225
0.111638
0.112059
0.112489
0.112926
0.113371
0.113823
0.114283
0.114749
0.115222
0.115701
0.116186
0.116676
0.117171
0.117671
0.118174
0.118681
0.11919
0.119701
0.120214
0.120728
0.121242
0.121757
0.12227
0.122782
0.123292
0.1238
0.124305
0.124806
0.125303
0.125796
0.126283
0.126766
0.127242
0.127711
0.128174
0.128629
0.129077
0.129517
0.129948
0.130371
0.130785
0.131189
0.131583
0.131968
0.132343
0.132707
0.133061
0.133404
0.133736
0.134057
0.134368
0.134667
0.134955
0.135232
0.135499
0.135754
0.135998
0.136231
0.136453
0.136664
0.136865
0.137056
0.137236
0.137406
0.137566
0.137716
0.137856
0.137988
0.13811
0.138223
0.138327
0.138423
0.13851
0.138589
0.138661
0.138724
0.13878
0.138829
0.138871
0.138906
0.138934
0.138955
0.138971
0.13898
0.138983
0.13898
0.138972
0.138958
0.138939
0.138915
0.138886
0.138852
0.138814
0.138771
0.138724
0.138673
0.138618
0.138559
0.138497
0.138432
0.138363
0.138291
0.138216
0.138138
0.138058
0.137976
0.13789
0.137803
0.137714
0.137623
0.13753
0.137435
0.137338
0.137241
0.137141
0.137041
0.136939
0.136836
0.136732
0.136628
0.136522
0.136416
0.136308
0.136201
0.136092
0.135983
0.135874
0.135764
0.135654
0.135544
0.135433
0.135323
0.135212
0.135101
0.13499
0.13488
0.134769
0.134659
0.134548
0.134438
0.134329
0.134219
0.134111
0.134002
0.133894
0.133787
0.13368
0.133573
0.133468
0.133363
0.133258
0.133154
0.133051
0.132949
0.132847
0.132746
0.132646
0.132546
0.132448
0.13235
0.132252
0.132156
0.13206
0.131965
0.131871
0.131778
0.131685
0.131593
0.131502
0.131412
0.131323
0.131234
0.131147
0.13106
0.130974
0.130889
0.130804
0.130721
0.130638
0.130557
0.130476
0.130396
0.130317
0.130238
0.130161
0.130084
0.130008
0.129934
0.129859
0.129786
0.129714
0.129642
0.129571
0.129501
0.129432
0.129363
0.129295
0.129228
0.129162
0.129096
0.129032
0.128967
0.128904
0.128841
0.128779
0.128718
0.128657
0.128597
0.128538
0.12848
0.128422
0.128364
0.128308
0.128252
0.128197
0.128142
0.128088
0.128035
0.127982
0.12793
0.127878
0.127827
0.127777
0.127727
0.127678
0.127629
0.127581
0.127533
0.127486
0.127439
0.127393
0.127348
0.127303
0.127258
0.127214
0.127171
0.127128
0.127085
0.127043
0.127001
0.12696
0.12692
0.126879
0.12684
0.1268
0.126761
0.126723
0.126685
0.126647
0.12661
0.126574
0.126537
0.126501
0.126466
0.126431
0.126397
0.126362
0.126329
0.126295
0.126263
0.12623
0.126198
0.126167
0.126135
0.126105
0.126074
0.126044
0.126015
0.125985
0.125957
0.125928
0.125901
0.125873
0.125846
0.125819
0.125793
0.125768
0.125742
0.125717
0.125693
0.125669
0.125646
0.125623
0.1256
0.125578
0.125556
0.125535
0.125515
0.125495
0.125475
0.125456
0.125437
0.125419
0.125402
0.125385
0.125368
0.125352
0.125337
0.125322
0.125308
0.125294
0.125281
0.125268
0.125256
0.125244
0.125234
0.125223
0.125213
0.125204
0.125196
0.125188
0.12518
0.125173
0.125167
0.125161
0.125156
0.125151
0.125147
0.125143
0.12514
0.125137
0.125134
0.125132
0.12513
0.125129
0.125128
0.125127
0.125126
0.125125
0.125124
0.125124
0.125123
0.125123
0.1
0.100011
0.100024
0.100038
0.100053
0.100069
0.100087
0.100106
0.100129
0.100154
0.100183
0.100215
0.100253
0.100295
0.100342
0.100395
0.100453
0.100518
0.100588
0.100664
0.100745
0.100832
0.100925
0.101022
0.101125
0.101232
0.101343
0.101459
0.10158
0.101705
0.101835
0.101969
0.102108
0.102252
0.102401
0.102556
0.102717
0.102884
0.103058
0.103239
0.103426
0.103622
0.103825
0.104036
0.104255
0.104482
0.104718
0.104963
0.105215
0.105477
0.105747
0.106025
0.106312
0.106608
0.106912
0.107224
0.107545
0.107874
0.108212
0.108558
0.108913
0.109276
0.109647
0.110027
0.110416
0.110813
0.111218
0.111631
0.112053
0.112483
0.112921
0.113367
0.11382
0.11428
0.114748
0.115222
0.115702
0.116188
0.116679
0.117176
0.117676
0.118181
0.118689
0.119199
0.119712
0.120226
0.120741
0.121257
0.121773
0.122287
0.122801
0.123312
0.123821
0.124327
0.12483
0.125328
0.125822
0.126311
0.126794
0.127271
0.127742
0.128205
0.128662
0.12911
0.129551
0.129983
0.130406
0.13082
0.131225
0.13162
0.132005
0.13238
0.132744
0.133098
0.133441
0.133774
0.134095
0.134405
0.134705
0.134993
0.13527
0.135536
0.13579
0.136034
0.136267
0.136489
0.1367
0.1369
0.13709
0.13727
0.137439
0.137599
0.137749
0.137889
0.13802
0.138141
0.138254
0.138357
0.138453
0.13854
0.138618
0.138689
0.138752
0.138808
0.138856
0.138897
0.138932
0.138959
0.13898
0.138995
0.139004
0.139006
0.139003
0.138994
0.13898
0.138961
0.138936
0.138907
0.138872
0.138834
0.13879
0.138743
0.138692
0.138636
0.138577
0.138515
0.138449
0.13838
0.138307
0.138232
0.138154
0.138074
0.137991
0.137905
0.137818
0.137728
0.137637
0.137543
0.137448
0.137351
0.137253
0.137154
0.137053
0.136951
0.136848
0.136744
0.136639
0.136533
0.136426
0.136319
0.136211
0.136103
0.135994
0.135884
0.135774
0.135664
0.135553
0.135443
0.135332
0.135221
0.13511
0.134999
0.134888
0.134777
0.134667
0.134556
0.134446
0.134337
0.134227
0.134118
0.13401
0.133902
0.133794
0.133687
0.133581
0.133475
0.133369
0.133265
0.133161
0.133058
0.132955
0.132853
0.132752
0.132652
0.132552
0.132453
0.132355
0.132258
0.132161
0.132066
0.131971
0.131876
0.131783
0.13169
0.131598
0.131507
0.131417
0.131328
0.131239
0.131151
0.131064
0.130978
0.130893
0.130809
0.130725
0.130643
0.130561
0.13048
0.1304
0.130321
0.130242
0.130165
0.130088
0.130012
0.129937
0.129863
0.12979
0.129717
0.129645
0.129574
0.129504
0.129435
0.129366
0.129298
0.129231
0.129165
0.129099
0.129034
0.12897
0.128906
0.128843
0.128781
0.12872
0.128659
0.128599
0.12854
0.128481
0.128423
0.128366
0.128309
0.128253
0.128198
0.128143
0.128089
0.128035
0.127982
0.12793
0.127878
0.127827
0.127776
0.127727
0.127677
0.127628
0.12758
0.127532
0.127485
0.127438
0.127392
0.127347
0.127301
0.127257
0.127213
0.127169
0.127126
0.127083
0.127041
0.126999
0.126958
0.126917
0.126876
0.126836
0.126797
0.126758
0.126719
0.126681
0.126643
0.126606
0.126569
0.126533
0.126497
0.126461
0.126426
0.126391
0.126357
0.126323
0.12629
0.126257
0.126224
0.126192
0.12616
0.126129
0.126098
0.126067
0.126037
0.126007
0.125978
0.125949
0.12592
0.125892
0.125865
0.125837
0.125811
0.125784
0.125758
0.125733
0.125708
0.125683
0.125659
0.125635
0.125612
0.125589
0.125567
0.125545
0.125524
0.125503
0.125483
0.125463
0.125444
0.125425
0.125407
0.125389
0.125372
0.125355
0.125339
0.125323
0.125308
0.125293
0.125279
0.125266
0.125253
0.125241
0.125229
0.125218
0.125208
0.125198
0.125188
0.125179
0.125171
0.125164
0.125156
0.12515
0.125144
0.125138
0.125134
0.125129
0.125125
0.125122
0.125119
0.125116
0.125114
0.125112
0.12511
0.125109
0.125108
0.125107
0.125106
0.125105
0.125105
0.125104
0.125104
0.1
0.100011
0.100024
0.100037
0.100052
0.100068
0.100086
0.100106
0.100128
0.100153
0.100182
0.100215
0.100252
0.100294
0.100341
0.100393
0.100452
0.100516
0.100586
0.100661
0.100743
0.100829
0.100921
0.101018
0.10112
0.101227
0.101338
0.101454
0.101574
0.101699
0.101828
0.101962
0.1021
0.102244
0.102393
0.102547
0.102708
0.102875
0.103048
0.103228
0.103416
0.103611
0.103813
0.104024
0.104243
0.10447
0.104705
0.104949
0.105202
0.105463
0.105733
0.106011
0.106298
0.106593
0.106897
0.10721
0.10753
0.10786
0.108198
0.108544
0.108899
0.109262
0.109634
0.110015
0.110404
0.110801
0.111207
0.111622
0.112044
0.112475
0.112914
0.113361
0.113816
0.114277
0.114746
0.115221
0.115703
0.116191
0.116684
0.117182
0.117684
0.11819
0.1187
0.119212
0.119727
0.120243
0.12076
0.121277
0.121795
0.122312
0.122827
0.12334
0.123851
0.124359
0.124863
0.125363
0.125859
0.126349
0.126834
0.127312
0.127784
0.128249
0.128707
0.129157
0.129598
0.130031
0.130455
0.13087
0.131276
0.131671
0.132057
0.132432
0.132797
0.133151
0.133494
0.133827
0.134148
0.134458
0.134757
0.135045
0.135322
0.135588
0.135842
0.136085
0.136318
0.136539
0.13675
0.13695
0.137139
0.137318
0.137487
0.137646
0.137795
0.137934
0.138064
0.138185
0.138297
0.1384
0.138495
0.138581
0.138659
0.138729
0.138791
0.138846
0.138894
0.138934
0.138968
0.138995
0.139015
0.139029
0.139037
0.139039
0.139035
0.139026
0.139011
0.138991
0.138966
0.138936
0.138901
0.138861
0.138818
0.13877
0.138718
0.138662
0.138602
0.138539
0.138473
0.138403
0.13833
0.138255
0.138176
0.138095
0.138012
0.137926
0.137838
0.137748
0.137656
0.137562
0.137467
0.13737
0.137271
0.137171
0.13707
0.136968
0.136865
0.13676
0.136655
0.136549
0.136442
0.136334
0.136226
0.136117
0.136008
0.135898
0.135788
0.135677
0.135566
0.135455
0.135344
0.135233
0.135122
0.135011
0.1349
0.134789
0.134678
0.134568
0.134457
0.134347
0.134238
0.134129
0.13402
0.133912
0.133804
0.133697
0.13359
0.133484
0.133379
0.133274
0.13317
0.133067
0.132964
0.132862
0.132761
0.13266
0.132561
0.132462
0.132363
0.132266
0.132169
0.132073
0.131978
0.131884
0.13179
0.131697
0.131606
0.131514
0.131424
0.131334
0.131246
0.131158
0.131071
0.130985
0.130899
0.130815
0.130731
0.130649
0.130567
0.130486
0.130405
0.130326
0.130248
0.13017
0.130093
0.130017
0.129942
0.129868
0.129794
0.129721
0.12965
0.129578
0.129508
0.129439
0.12937
0.129302
0.129235
0.129168
0.129102
0.129037
0.128973
0.128909
0.128846
0.128784
0.128722
0.128661
0.128601
0.128542
0.128483
0.128425
0.128367
0.12831
0.128254
0.128198
0.128143
0.128089
0.128035
0.127982
0.12793
0.127878
0.127827
0.127776
0.127726
0.127676
0.127627
0.127579
0.127531
0.127483
0.127437
0.12739
0.127344
0.127299
0.127254
0.12721
0.127166
0.127122
0.127079
0.127037
0.126995
0.126953
0.126912
0.126872
0.126831
0.126792
0.126752
0.126714
0.126675
0.126637
0.1266
0.126563
0.126526
0.12649
0.126454
0.126419
0.126384
0.126349
0.126315
0.126281
0.126248
0.126215
0.126183
0.126151
0.126119
0.126088
0.126057
0.126026
0.125996
0.125967
0.125937
0.125909
0.12588
0.125852
0.125825
0.125798
0.125771
0.125745
0.125719
0.125694
0.125669
0.125645
0.125621
0.125597
0.125574
0.125551
0.125529
0.125508
0.125487
0.125466
0.125446
0.125426
0.125407
0.125389
0.12537
0.125353
0.125336
0.125319
0.125303
0.125288
0.125273
0.125259
0.125245
0.125232
0.12522
0.125208
0.125196
0.125185
0.125175
0.125165
0.125156
0.125148
0.12514
0.125132
0.125126
0.125119
0.125114
0.125109
0.125104
0.1251
0.125096
0.125093
0.12509
0.125088
0.125086
0.125084
0.125082
0.125081
0.12508
0.125079
0.125078
0.125077
0.125077
0.125077
0.1
0.100011
0.100024
0.100037
0.100052
0.100068
0.100086
0.100105
0.100127
0.100152
0.100181
0.100213
0.10025
0.100292
0.100339
0.100391
0.100449
0.100513
0.100583
0.100658
0.100739
0.100825
0.100917
0.101013
0.101115
0.101221
0.101332
0.101447
0.101566
0.10169
0.101819
0.101952
0.10209
0.102233
0.102382
0.102536
0.102696
0.102862
0.103035
0.103215
0.103402
0.103596
0.103798
0.104009
0.104227
0.104454
0.104689
0.104932
0.105185
0.105445
0.105715
0.105993
0.10628
0.106575
0.106879
0.107191
0.107512
0.107841
0.108179
0.108526
0.108881
0.109245
0.109618
0.109999
0.110388
0.110787
0.111194
0.111609
0.112033
0.112465
0.112906
0.113354
0.11381
0.114273
0.114744
0.115221
0.115705
0.116194
0.116689
0.117189
0.117694
0.118202
0.118714
0.119229
0.119746
0.120264
0.120784
0.121304
0.121824
0.122343
0.122861
0.123376
0.12389
0.1244
0.124906
0.125409
0.125906
0.126399
0.126885
0.127366
0.127839
0.128306
0.128765
0.129217
0.129659
0.130094
0.130519
0.130935
0.131341
0.131737
0.132123
0.132499
0.132864
0.133219
0.133562
0.133895
0.134216
0.134526
0.134825
0.135113
0.135389
0.135654
0.135908
0.136151
0.136383
0.136604
0.136814
0.137013
0.137202
0.13738
0.137548
0.137706
0.137854
0.137993
0.138122
0.138242
0.138353
0.138455
0.138549
0.138634
0.138711
0.13878
0.138842
0.138896
0.138942
0.138982
0.139015
0.139041
0.13906
0.139073
0.13908
0.139081
0.139076
0.139066
0.13905
0.13903
0.139004
0.138973
0.138937
0.138897
0.138853
0.138804
0.138751
0.138695
0.138634
0.138571
0.138504
0.138433
0.13836
0.138284
0.138204
0.138123
0.138039
0.137952
0.137864
0.137773
0.137681
0.137587
0.137491
0.137393
0.137294
0.137194
0.137092
0.136989
0.136886
0.136781
0.136675
0.136568
0.136461
0.136353
0.136244
0.136135
0.136026
0.135915
0.135805
0.135694
0.135583
0.135472
0.135361
0.135249
0.135138
0.135026
0.134915
0.134804
0.134693
0.134582
0.134471
0.134361
0.134251
0.134142
0.134033
0.133925
0.133817
0.133709
0.133603
0.133496
0.133391
0.133286
0.133182
0.133078
0.132975
0.132873
0.132772
0.132671
0.132571
0.132472
0.132374
0.132276
0.132179
0.132083
0.131988
0.131893
0.131799
0.131707
0.131614
0.131523
0.131433
0.131343
0.131254
0.131166
0.131079
0.130993
0.130907
0.130822
0.130739
0.130656
0.130574
0.130493
0.130412
0.130333
0.130254
0.130176
0.130099
0.130023
0.129948
0.129873
0.1298
0.129727
0.129655
0.129583
0.129513
0.129443
0.129374
0.129306
0.129239
0.129172
0.129106
0.129041
0.128976
0.128912
0.128849
0.128787
0.128725
0.128664
0.128603
0.128544
0.128484
0.128426
0.128368
0.128311
0.128255
0.128199
0.128144
0.128089
0.128035
0.127982
0.127929
0.127877
0.127826
0.127775
0.127724
0.127674
0.127625
0.127576
0.127528
0.127481
0.127433
0.127387
0.127341
0.127295
0.12725
0.127205
0.127161
0.127117
0.127074
0.127031
0.126989
0.126947
0.126906
0.126865
0.126825
0.126785
0.126745
0.126706
0.126667
0.126629
0.126591
0.126554
0.126517
0.12648
0.126444
0.126408
0.126373
0.126338
0.126304
0.12627
0.126236
0.126203
0.12617
0.126138
0.126106
0.126074
0.126043
0.126012
0.125982
0.125952
0.125922
0.125893
0.125864
0.125836
0.125808
0.125781
0.125754
0.125727
0.125701
0.125675
0.12565
0.125625
0.125601
0.125577
0.125553
0.12553
0.125508
0.125486
0.125464
0.125443
0.125423
0.125403
0.125383
0.125364
0.125346
0.125328
0.125311
0.125294
0.125277
0.125262
0.125246
0.125232
0.125218
0.125204
0.125191
0.125179
0.125167
0.125156
0.125145
0.125135
0.125126
0.125117
0.125108
0.125101
0.125094
0.125087
0.125081
0.125076
0.125071
0.125066
0.125062
0.125059
0.125056
0.125053
0.125051
0.125049
0.125047
0.125046
0.125045
0.125044
0.125043
0.125042
0.125041
0.125041
0.1
0.100011
0.100023
0.100037
0.100052
0.100067
0.100085
0.100105
0.100127
0.100151
0.10018
0.100212
0.100249
0.10029
0.100337
0.100389
0.100447
0.10051
0.100579
0.100654
0.100734
0.10082
0.100911
0.101007
0.101108
0.101213
0.101323
0.101438
0.101557
0.10168
0.101808
0.101941
0.102078
0.102221
0.102369
0.102522
0.102681
0.102847
0.103019
0.103198
0.103384
0.103578
0.10378
0.10399
0.104208
0.104434
0.104668
0.104912
0.105163
0.105424
0.105693
0.105971
0.106257
0.106552
0.106856
0.107168
0.107489
0.107818
0.108157
0.108504
0.108859
0.109224
0.109597
0.109979
0.110369
0.110769
0.111177
0.111594
0.112019
0.112453
0.112895
0.113345
0.113802
0.114268
0.11474
0.11522
0.115706
0.116198
0.116696
0.117198
0.117705
0.118217
0.118731
0.119249
0.119769
0.12029
0.120813
0.121336
0.121859
0.122381
0.122902
0.12342
0.123937
0.12445
0.124959
0.125464
0.125964
0.126459
0.126948
0.127431
0.127907
0.128376
0.128837
0.12929
0.129734
0.13017
0.130596
0.131013
0.131421
0.131818
0.132205
0.132581
0.132947
0.133302
0.133645
0.133978
0.134299
0.13461
0.134908
0.135196
0.135472
0.135736
0.13599
0.136232
0.136463
0.136683
0.136892
0.13709
0.137278
0.137455
0.137622
0.13778
0.137927
0.138064
0.138192
0.138311
0.138421
0.138522
0.138615
0.138699
0.138775
0.138843
0.138903
0.138956
0.139001
0.13904
0.139071
0.139096
0.139115
0.139127
0.139133
0.139133
0.139127
0.139115
0.139099
0.139077
0.13905
0.139018
0.138981
0.13894
0.138895
0.138846
0.138792
0.138735
0.138673
0.138609
0.138541
0.13847
0.138396
0.138319
0.138239
0.138157
0.138072
0.137985
0.137895
0.137804
0.137711
0.137616
0.13752
0.137422
0.137322
0.137221
0.137119
0.137016
0.136911
0.136806
0.1367
0.136593
0.136485
0.136376
0.136267
0.136158
0.136047
0.135937
0.135826
0.135715
0.135603
0.135492
0.13538
0.135268
0.135156
0.135045
0.134933
0.134821
0.13471
0.134599
0.134488
0.134378
0.134268
0.134158
0.134049
0.13394
0.133832
0.133724
0.133617
0.133511
0.133405
0.1333
0.133196
0.133092
0.132989
0.132886
0.132785
0.132684
0.132584
0.132484
0.132386
0.132288
0.132191
0.132094
0.131999
0.131904
0.13181
0.131717
0.131625
0.131533
0.131443
0.131353
0.131264
0.131176
0.131088
0.131002
0.130916
0.130831
0.130747
0.130664
0.130582
0.1305
0.13042
0.13034
0.130261
0.130183
0.130106
0.13003
0.129954
0.12988
0.129806
0.129733
0.12966
0.129589
0.129518
0.129448
0.129379
0.129311
0.129243
0.129176
0.12911
0.129044
0.128979
0.128915
0.128852
0.128789
0.128727
0.128666
0.128605
0.128545
0.128486
0.128427
0.128369
0.128312
0.128255
0.128199
0.128143
0.128089
0.128034
0.127981
0.127928
0.127875
0.127824
0.127772
0.127722
0.127671
0.127622
0.127573
0.127524
0.127476
0.127429
0.127382
0.127335
0.127289
0.127244
0.127199
0.127154
0.12711
0.127067
0.127024
0.126981
0.126939
0.126897
0.126856
0.126815
0.126775
0.126735
0.126695
0.126656
0.126617
0.126579
0.126541
0.126504
0.126467
0.126431
0.126395
0.126359
0.126324
0.126289
0.126254
0.12622
0.126187
0.126153
0.12612
0.126088
0.126056
0.126024
0.125993
0.125962
0.125932
0.125902
0.125872
0.125843
0.125815
0.125786
0.125758
0.125731
0.125704
0.125677
0.125651
0.125625
0.1256
0.125575
0.125551
0.125527
0.125504
0.125481
0.125458
0.125436
0.125415
0.125394
0.125373
0.125353
0.125334
0.125315
0.125296
0.125278
0.125261
0.125244
0.125228
0.125212
0.125197
0.125183
0.125169
0.125155
0.125142
0.12513
0.125118
0.125107
0.125097
0.125087
0.125078
0.125069
0.125061
0.125053
0.125046
0.12504
0.125034
0.125029
0.125024
0.12502
0.125016
0.125012
0.125009
0.125007
0.125005
0.125003
0.125001
0.125
0.124999
0.124998
0.124997
0.124996
0.124996
0.1
0.100011
0.100023
0.100037
0.100051
0.100067
0.100084
0.100104
0.100126
0.10015
0.100178
0.10021
0.100247
0.100288
0.100334
0.100386
0.100443
0.100506
0.100575
0.100649
0.100729
0.100814
0.100904
0.101
0.1011
0.101205
0.101314
0.101428
0.101546
0.101669
0.101796
0.101927
0.102064
0.102206
0.102353
0.102505
0.102664
0.102829
0.103
0.103179
0.103364
0.103557
0.103758
0.103967
0.104184
0.10441
0.104644
0.104887
0.105138
0.105398
0.105667
0.105944
0.10623
0.106525
0.106828
0.107141
0.107461
0.107791
0.10813
0.108477
0.108833
0.109198
0.109572
0.109955
0.110347
0.110747
0.111157
0.111575
0.112002
0.112437
0.112881
0.113333
0.113793
0.114261
0.114736
0.115219
0.115707
0.116202
0.116703
0.117209
0.117719
0.118234
0.118752
0.119273
0.119796
0.120321
0.120847
0.121374
0.1219
0.122426
0.12295
0.123473
0.123992
0.124509
0.125021
0.125529
0.126033
0.126531
0.127023
0.127508
0.127987
0.128458
0.128921
0.129376
0.129823
0.13026
0.130688
0.131107
0.131515
0.131914
0.132301
0.132679
0.133045
0.1334
0.133744
0.134077
0.134398
0.134708
0.135006
0.135293
0.135569
0.135833
0.136086
0.136327
0.136557
0.136776
0.136984
0.137182
0.137368
0.137545
0.137711
0.137866
0.138012
0.138149
0.138275
0.138393
0.138502
0.138601
0.138692
0.138775
0.13885
0.138916
0.138975
0.139027
0.139071
0.139108
0.139138
0.139162
0.139179
0.13919
0.139194
0.139193
0.139186
0.139174