# vtk DataFile Version 3.0
LBM Fluid Grid
ASCII
DATASET STRUCTURED_POINTS
DIMENSIONS 400 150 1
ORIGIN 0 0 0
SPACING 1 1 1
POINT_DATA 60000
SCALARS VelocityMagnitude double 1
LOOKUP_TABLE default
0.1
0.0997621
0.0995534
0.0993895
0.0992644
0.0991606
0.0990598
0.0989506
0.0988322
0.0987126
0.0986047
0.0985213
0.0984711
0.0984576
0.0984794
0.098532
0.0986103
0.0987101
0.0988286
0.0989644
0.0991157
0.09928
0.0994529
0.0996283
0.0997994
0.0999602
0.100107
0.100237
0.100354
0.100462
0.100567
0.100674
0.100791
0.10092
0.101065
0.101227
0.101407
0.101605
0.101821
0.102056
0.102308
0.10258
0.10287
0.103177
0.103498
0.103831
0.104171
0.104515
0.104857
0.105195
0.105525
0.105843
0.10615
0.106444
0.106727
0.107
0.107265
0.107526
0.107784
0.108044
0.108309
0.108581
0.108862
0.109156
0.109463
0.109785
0.110122
0.110476
0.110845
0.11123
0.111629
0.112042
0.112466
0.112901
0.113343
0.113792
0.114245
0.1147
0.115155
0.115608
0.116059
0.116506
0.116948
0.117387
0.117821
0.118251
0.11868
0.119107
0.119535
0.119965
0.120398
0.120836
0.12128
0.121731
0.122189
0.122656
0.123131
0.123614
0.124105
0.124603
0.125107
0.125615
0.126126
0.126638
0.127149
0.127657
0.12816
0.128655
0.12914
0.129613
0.130074
0.130519
0.130947
0.131359
0.131752
0.132127
0.132485
0.132825
0.133148
0.133456
0.133749
0.13403
0.1343
0.13456
0.134812
0.135059
0.135301
0.135539
0.135775
0.13601
0.136244
0.136478
0.136711
0.136944
0.137176
0.137406
0.137633
0.137857
0.138076
0.138289
0.138494
0.13869
0.138875
0.139049
0.139209
0.139356
0.139487
0.139604
0.139704
0.139788
0.139857
0.13991
0.139948
0.139973
0.139985
0.139985
0.139975
0.139957
0.139932
0.139901
0.139867
0.13983
0.139792
0.139755
0.139718
0.139684
0.139652
0.139624
0.139599
0.139577
0.139558
0.139543
0.139529
0.139517
0.139506
0.139494
0.139481
0.139465
0.139446
0.139423
0.139393
0.139357
0.139314
0.139262
0.139201
0.139132
0.139052
0.138963
0.138865
0.138757
0.13864
0.138515
0.138382
0.138243
0.138097
0.137945
0.137789
0.13763
0.137468
0.137304
0.137138
0.136971
0.136804
0.136636
0.136468
0.136299
0.136129
0.135957
0.135784
0.135607
0.135426
0.135241
0.13505
0.134852
0.134647
0.134433
0.13421
0.133977
0.133734
0.133479
0.133214
0.132939
0.132653
0.132357
0.132052
0.131739
0.131419
0.131093
0.130762
0.130428
0.130091
0.129754
0.129417
0.129081
0.128749
0.128419
0.128094
0.127774
0.127458
0.127148
0.126843
0.126543
0.126248
0.125958
0.125671
0.125388
0.125107
0.124829
0.124552
0.124276
0.124002
0.123727
0.123453
0.123179
0.122906
0.122632
0.122359
0.122088
0.121817
0.121549
0.121283
0.121019
0.12076
0.120504
0.120253
0.120007
0.119766
0.11953
0.119298
0.119072
0.11885
0.118632
0.118418
0.118206
0.117997
0.117789
0.117582
0.117375
0.117167
0.116958
0.116746
0.116533
0.116317
0.116098
0.115877
0.115653
0.115427
0.1152
0.114971
0.114741
0.114512
0.114283
0.114056
0.113831
0.113608
0.113389
0.113174
0.112962
0.112756
0.112554
0.112356
0.112163
0.111976
0.111792
0.111613
0.111439
0.111268
0.111102
0.110939
0.11078
0.110625
0.110474
0.110326
0.110183
0.110044
0.109909
0.109779
0.109653
0.109532
0.109417
0.109306
0.109201
0.1091
0.109005
0.108913
0.108826
0.108743
0.108663
0.108586
0.108511
0.108438
0.108366
0.108295
0.108224
0.108152
0.108081
0.108008
0.107935
0.107861
0.107786
0.10771
0.107633
0.107556
0.107478
0.107401
0.107323
0.107245
0.107168
0.107091
0.107014
0.106938
0.106861
0.106785
0.106709
0.106632
0.106555
0.106478
0.1064
0.106322
0.106243
0.106163
0.106083
0.106001
0.10592
0.105838
0.105756
0.105673
0.105592
0.10551
0.105429
0.105349
0.10527
0.105192
0.105115
0.10504
0.104967
0.104895
0.104825
0.104757
0.104691
0.104627
0.104565
0.104506
0.10445
0.104396
0.104346
0.104299
0.104255
0.104215
0.104179
0.104148
0.104121
0.104098
0.10408
0.104068
0.10406
0.104057
0.104059
0.104066
0.104066
0.1
0.0997611
0.0995517
0.0993874
0.0992622
0.0991584
0.0990575
0.0989483
0.0988297
0.0987099
0.0986017
0.098518
0.0984676
0.0984539
0.0984756
0.0985281
0.0986064
0.0987062
0.0988248
0.0989606
0.0991121
0.0992766
0.0994496
0.0996253
0.0997967
0.0999578
0.100104
0.100235
0.100353
0.10046
0.100565
0.100673
0.100789
0.100919
0.101064
0.101227
0.101407
0.101605
0.101821
0.102056
0.102309
0.102581
0.102871
0.103178
0.103499
0.103832
0.104173
0.104517
0.10486
0.105198
0.105528
0.105846
0.106153
0.106448
0.106731
0.107004
0.107269
0.107529
0.107788
0.108048
0.108312
0.108584
0.108865
0.109159
0.109466
0.109787
0.110125
0.110478
0.110847
0.111232
0.111631
0.112043
0.112467
0.112902
0.113344
0.113793
0.114245
0.1147
0.115155
0.115608
0.116059
0.116505
0.116948
0.117385
0.117819
0.11825
0.118678
0.119105
0.119533
0.119962
0.120395
0.120833
0.121276
0.121727
0.122185
0.122651
0.123126
0.123609
0.1241
0.124598
0.125101
0.125609
0.12612
0.126632
0.127143
0.127651
0.128153
0.128648
0.129134
0.129607
0.130068
0.130513
0.130941
0.131353
0.131746
0.132122
0.132479
0.132819
0.133142
0.13345
0.133743
0.134024
0.134293
0.134554
0.134806
0.135052
0.135294
0.135532
0.135768
0.136003
0.136237
0.136471
0.136704
0.136937
0.137169
0.137399
0.137627
0.137851
0.13807
0.138282
0.138488
0.138684
0.138869
0.139043
0.139203
0.13935
0.139482
0.139598
0.139699
0.139783
0.139852
0.139905
0.139943
0.139968
0.13998
0.13998
0.13997
0.139952
0.139927
0.139896
0.139862
0.139825
0.139787
0.139749
0.139713
0.139678
0.139647
0.139618
0.139593
0.139572
0.139553
0.139538
0.139524
0.139512
0.139501
0.139489
0.139476
0.139461
0.139442
0.139418
0.139389
0.139353
0.139309
0.139258
0.139197
0.139128
0.139048
0.138959
0.138861
0.138753
0.138636
0.138511
0.138378
0.138238
0.138092
0.137941
0.137785
0.137626
0.137464
0.1373
0.137134
0.136967
0.1368
0.136632
0.136464
0.136295
0.136125
0.135954
0.13578
0.135603
0.135423
0.135238
0.135047
0.134849
0.134644
0.13443
0.134207
0.133974
0.133731
0.133477
0.133212
0.132936
0.13265
0.132355
0.13205
0.131737
0.131416
0.13109
0.130759
0.130425
0.130088
0.129751
0.129414
0.129079
0.128746
0.128417
0.128092
0.127771
0.127456
0.127146
0.126841
0.126541
0.126246
0.125956
0.125669
0.125386
0.125105
0.124827
0.12455
0.124275
0.124
0.123726
0.123452
0.123178
0.122904
0.122631
0.122358
0.122086
0.121816
0.121547
0.121281
0.121018
0.120759
0.120503
0.120252
0.120006
0.119765
0.119529
0.119297
0.119071
0.118849
0.118631
0.118417
0.118206
0.117996
0.117789
0.117582
0.117374
0.117166
0.116957
0.116746
0.116533
0.116317
0.116098
0.115877
0.115653
0.115427
0.115199
0.11497
0.114741
0.114512
0.114283
0.114056
0.11383
0.113608
0.113389
0.113173
0.112962
0.112755
0.112553
0.112356
0.112163
0.111975
0.111792
0.111613
0.111438
0.111268
0.111102
0.110939
0.11078
0.110625
0.110474
0.110326
0.110183
0.110044
0.109909
0.109778
0.109653
0.109532
0.109417
0.109306
0.109201
0.1091
0.109005
0.108913
0.108826
0.108743
0.108663
0.108586
0.108511
0.108438
0.108366
0.108295
0.108224
0.108152
0.108081
0.108008
0.107935
0.107861
0.107786
0.10771
0.107633
0.107556
0.107478
0.107401
0.107323
0.107245
0.107168
0.107091
0.107014
0.106938
0.106861
0.106785
0.106709
0.106632
0.106555
0.106478
0.1064
0.106322
0.106243
0.106163
0.106082
0.106001
0.10592
0.105838
0.105755
0.105673
0.105591
0.10551
0.105429
0.105348
0.105269
0.105191
0.105115
0.10504
0.104966
0.104894
0.104824
0.104756
0.10469
0.104626
0.104564
0.104505
0.104449
0.104395
0.104345
0.104298
0.104254
0.104214
0.104179
0.104147
0.10412
0.104097
0.10408
0.104067
0.104059
0.104056
0.104058
0.104065
0.104065
0.1
0.0997621
0.0995534
0.0993895
0.0992644
0.0991606
0.0990598
0.0989506
0.0988322
0.0987126
0.0986047
0.0985213
0.0984711
0.0984576
0.0984794
0.098532
0.0986103
0.0987101
0.0988286
0.0989644
0.0991157
0.09928
0.0994529
0.0996283
0.0997994
0.0999602
0.100107
0.100237
0.100354
0.100462
0.100567
0.100674
0.100791
0.10092
0.101065
0.101227
0.101407
0.101605
0.101821
0.102056
0.102308
0.10258
0.10287
0.103177
0.103498
0.103831
0.104171
0.104515
0.104858
0.105195
0.105525
0.105843
0.10615
0.106444
0.106727
0.107
0.107265
0.107526
0.107784
0.108044
0.108309
0.108581
0.108862
0.109156
0.109463
0.109785
0.110122
0.110476
0.110845
0.11123
0.111629
0.112042
0.112466
0.112901
0.113343
0.113792
0.114245
0.1147
0.115155
0.115608
0.116059
0.116506
0.116948
0.117387
0.117821
0.118251
0.11868
0.119107
0.119535
0.119965
0.120398
0.120836
0.12128
0.121731
0.122189
0.122656
0.123131
0.123614
0.124105
0.124603
0.125107
0.125615
0.126126
0.126638
0.127149
0.127657
0.12816
0.128655
0.12914
0.129613
0.130074
0.130519
0.130947
0.131359
0.131752
0.132127
0.132485
0.132825
0.133148
0.133456
0.133749
0.13403
0.1343
0.13456
0.134812
0.135059
0.1353
0.135539
0.135775
0.13601
0.136244
0.136478
0.136711
0.136944
0.137176
0.137406
0.137633
0.137857
0.138076
0.138289
0.138494
0.138689
0.138875
0.139048
0.139209
0.139355
0.139487
0.139603
0.139704
0.139788
0.139857
0.13991
0.139948
0.139973
0.139984
0.139985
0.139975
0.139957
0.139932
0.139901
0.139867
0.13983
0.139792
0.139754
0.139718
0.139684
0.139652
0.139623
0.139598
0.139577
0.139558
0.139543
0.139529
0.139517
0.139506
0.139494
0.139481
0.139465
0.139446
0.139422
0.139393
0.139357
0.139314
0.139262
0.139201
0.139132
0.139052
0.138963
0.138865
0.138757
0.13864
0.138515
0.138383
0.138243
0.138097
0.137945
0.13779
0.13763
0.137468
0.137304
0.137138
0.136972
0.136805
0.136637
0.136468
0.136299
0.136129
0.135958
0.135784
0.135607
0.135427
0.135242
0.135051
0.134853
0.134648
0.134434
0.134211
0.133978
0.133734
0.13348
0.133215
0.13294
0.132654
0.132358
0.132053
0.13174
0.13142
0.131093
0.130763
0.130428
0.130092
0.129754
0.129417
0.129082
0.128749
0.12842
0.128095
0.127774
0.127459
0.127149
0.126844
0.126544
0.126249
0.125958
0.125671
0.125388
0.125107
0.124829
0.124552
0.124277
0.124002
0.123728
0.123453
0.12318
0.122906
0.122632
0.122359
0.122088
0.121817
0.121548
0.121282
0.121019
0.12076
0.120504
0.120253
0.120007
0.119766
0.119529
0.119298
0.119072
0.11885
0.118632
0.118417
0.118206
0.117997
0.117789
0.117582
0.117374
0.117166
0.116957
0.116746
0.116532
0.116316
0.116098
0.115876
0.115653
0.115427
0.115199
0.11497
0.114741
0.114511
0.114283
0.114055
0.11383
0.113608
0.113389
0.113173
0.112962
0.112755
0.112553
0.112356
0.112163
0.111975
0.111792
0.111613
0.111438
0.111268
0.111101
0.110939
0.11078
0.110625
0.110473
0.110326
0.110183
0.110043
0.109909
0.109778
0.109653
0.109532
0.109417
0.109306
0.109201
0.1091
0.109004
0.108913
0.108826
0.108743
0.108663
0.108586
0.108511
0.108438
0.108366
0.108295
0.108224
0.108152
0.108081
0.108008
0.107935
0.107861
0.107786
0.10771
0.107633
0.107556
0.107478
0.107401
0.107323
0.107246
0.107168
0.107091
0.107014
0.106938
0.106861
0.106785
0.106709
0.106632
0.106556
0.106478
0.106401
0.106322
0.106243
0.106163
0.106083
0.106002
0.10592
0.105838
0.105756
0.105674
0.105592
0.10551
0.105429
0.105349
0.10527
0.105192
0.105116
0.10504
0.104967
0.104895
0.104825
0.104757
0.104691
0.104627
0.104565
0.104506
0.10445
0.104397
0.104346
0.104299
0.104255
0.104216
0.10418
0.104148
0.104121
0.104099
0.104081
0.104068
0.10406
0.104057
0.104059
0.104067
0.104067
0.1
0.0997649
0.0995584
0.0993957
0.0992712
0.0991674
0.0990665
0.0989575
0.0988395
0.0987207
0.0986137
0.0985311
0.0984817
0.0984687
0.0984908
0.0985436
0.0986219
0.0987217
0.0988401
0.0989756
0.0991266
0.0992904
0.0994626
0.0996372
0.0998075
0.0999675
0.100113
0.100243
0.10036
0.100467
0.100572
0.100679
0.100795
0.100923
0.101068
0.10123
0.101409
0.101606
0.101822
0.102055
0.102307
0.102578
0.102868
0.103173
0.103494
0.103826
0.104166
0.104508
0.10485
0.105187
0.105516
0.105834
0.10614
0.106434
0.106716
0.106989
0.107254
0.107515
0.107773
0.108034
0.108298
0.108571
0.108853
0.109147
0.109455
0.109777
0.110115
0.11047
0.11084
0.111225
0.111625
0.112038
0.112463
0.112899
0.113342
0.113791
0.114244
0.1147
0.115155
0.115609
0.11606
0.116508
0.116951
0.11739
0.117824
0.118256
0.118685
0.119114
0.119543
0.119973
0.120407
0.120846
0.121291
0.121743
0.122202
0.12267
0.123146
0.12363
0.124122
0.12462
0.125124
0.125633
0.126144
0.126656
0.127168
0.127676
0.128178
0.128673
0.129158
0.129632
0.130092
0.130537
0.130965
0.131376
0.13177
0.132145
0.132502
0.132842
0.133166
0.133474
0.133767
0.134048
0.134318
0.134579
0.134832
0.135078
0.13532
0.135559
0.135795
0.13603
0.136264
0.136498
0.136731
0.136964
0.137196
0.137426
0.137653
0.137876
0.138095
0.138307
0.138512
0.138707
0.138892
0.139065
0.139225
0.139372
0.139503
0.139619
0.139719
0.139803
0.139872
0.139925
0.139963
0.139988
0.14
0.14
0.13999
0.139972
0.139947
0.139917
0.139882
0.139846
0.139808
0.13977
0.139734
0.139699
0.139668
0.139639
0.139614
0.139592
0.139573
0.139557
0.139544
0.139531
0.13952
0.139508
0.139494
0.139479
0.139459
0.139435
0.139406
0.139369
0.139326
0.139274
0.139213
0.139144
0.139064
0.138976
0.138877
0.138769
0.138653
0.138528
0.138395
0.138256
0.13811
0.137959
0.137803
0.137644
0.137482
0.137317
0.137152
0.136985
0.136818
0.13665
0.136481
0.136312
0.136142
0.13597
0.135796
0.135619
0.135438
0.135253
0.135061
0.134863
0.134658
0.134444
0.13422
0.133987
0.133744
0.133489
0.133224
0.132949
0.132663
0.132367
0.132062
0.131749
0.131429
0.131103
0.130772
0.130438
0.130101
0.129764
0.129427
0.129091
0.128758
0.128429
0.128103
0.127783
0.127467
0.127157
0.126851
0.126551
0.126256
0.125965
0.125678
0.125394
0.125113
0.124835
0.124558
0.124282
0.124007
0.123733
0.123459
0.123184
0.12291
0.122637
0.122364
0.122092
0.121821
0.121553
0.121286
0.121023
0.120763
0.120508
0.120257
0.12001
0.119768
0.119532
0.1193
0.119074
0.118852
0.118634
0.118419
0.118207
0.117998
0.11779
0.117582
0.117375
0.117167
0.116957
0.116746
0.116533
0.116316
0.116098
0.115876
0.115653
0.115427
0.115199
0.11497
0.114741
0.114511
0.114283
0.114055
0.11383
0.113608
0.113389
0.113173
0.112962
0.112755
0.112553
0.112356
0.112163
0.111975
0.111792
0.111613
0.111438
0.111268
0.111101
0.110938
0.11078
0.110624
0.110473
0.110326
0.110182
0.110043
0.109908
0.109778
0.109653
0.109532
0.109416
0.109306
0.1092
0.1091
0.109004
0.108913
0.108826
0.108743
0.108663
0.108586
0.108511
0.108438
0.108366
0.108294
0.108223
0.108152
0.10808
0.108008
0.107935
0.10786
0.107785
0.10771
0.107633
0.107556
0.107478
0.107401
0.107323
0.107246
0.107168
0.107091
0.107014
0.106938
0.106862
0.106785
0.106709
0.106633
0.106556
0.106479
0.106401
0.106323
0.106244
0.106164
0.106084
0.106003
0.105921
0.105839
0.105757
0.105675
0.105593
0.105512
0.105431
0.105351
0.105272
0.105194
0.105118
0.105043
0.104969
0.104897
0.104828
0.10476
0.104694
0.10463
0.104568
0.104509
0.104453
0.1044
0.104349
0.104302
0.104259
0.104219
0.104183
0.104152
0.104125
0.104102
0.104084
0.104071
0.104063
0.104061
0.104063
0.10407
0.10407
0.1
0.0997696
0.0995666
0.099406
0.0992823
0.0991786
0.0990776
0.0989688
0.0988517
0.0987341
0.0986286
0.0985474
0.0984991
0.098487
0.0985097
0.0985628
0.0986412
0.0987409
0.0988591
0.0989942
0.0991446
0.0993075
0.0994786
0.0996519
0.0998209
0.0999796
0.100124
0.100253
0.100369
0.100476
0.10058
0.100686
0.100801
0.100929
0.101073
0.101234
0.101412
0.101608
0.101822
0.102055
0.102306
0.102576
0.102864
0.103168
0.103488
0.103818
0.104156
0.104498
0.104838
0.105174
0.105501
0.105818
0.106123
0.106416
0.106698
0.10697
0.107235
0.107496
0.107755
0.108016
0.108281
0.108554
0.108837
0.109132
0.109441
0.109764
0.110104
0.110459
0.11083
0.111217
0.111618
0.112033
0.112459
0.112895
0.113339
0.113789
0.114243
0.1147
0.115156
0.115611
0.116063
0.116511
0.116955
0.117395
0.117831
0.118264
0.118695
0.119124
0.119555
0.119987
0.120423
0.120863
0.12131
0.121763
0.122224
0.122693
0.123171
0.123656
0.124149
0.124648
0.125153
0.125662
0.126174
0.126687
0.127198
0.127706
0.128209
0.128704
0.129189
0.129662
0.130122
0.130566
0.130995
0.131406
0.131799
0.132174
0.132532
0.132872
0.133196
0.133504
0.133798
0.134079
0.13435
0.134611
0.134864
0.135111
0.135353
0.135592
0.135829
0.136064
0.136298
0.136532
0.136765
0.136998
0.137229
0.137459
0.137685
0.137908
0.138126
0.138338
0.138542
0.138737
0.138921
0.139093
0.139253
0.139399
0.139529
0.139645
0.139745
0.139829
0.139897
0.13995
0.139988
0.140013
0.140025
0.140025
0.140016
0.139998
0.139973
0.139943
0.139909
0.139872
0.139834
0.139797
0.13976
0.139726
0.139694
0.139665
0.13964
0.139618
0.139599
0.139582
0.139568
0.139555
0.139543
0.139531
0.139517
0.139501
0.139481
0.139457
0.139427
0.13939
0.139346
0.139294
0.139234
0.139164
0.139084
0.138996
0.138897
0.13879
0.138674
0.138549
0.138416
0.138277
0.138131
0.13798
0.137825
0.137666
0.137504
0.13734
0.137174
0.137007
0.136839
0.136671
0.136502
0.136333
0.136162
0.13599
0.135815
0.135638
0.135456
0.13527
0.135079
0.13488
0.134674
0.13446
0.134236
0.134003
0.133759
0.133505
0.13324
0.132964
0.132678
0.132382
0.132077
0.131764
0.131444
0.131118
0.130787
0.130453
0.130116
0.129779
0.129442
0.129106
0.128773
0.128444
0.128118
0.127797
0.127481
0.12717
0.126864
0.126564
0.126268
0.125976
0.125689
0.125405
0.125124
0.124845
0.124567
0.124291
0.124016
0.123741
0.123467
0.123193
0.122918
0.122645
0.122371
0.122099
0.121828
0.12156
0.121293
0.12103
0.12077
0.120514
0.120262
0.120015
0.119773
0.119537
0.119305
0.119078
0.118855
0.118637
0.118422
0.11821
0.118
0.117791
0.117584
0.117376
0.117168
0.116958
0.116747
0.116533
0.116317
0.116098
0.115877
0.115653
0.115427
0.115199
0.11497
0.114741
0.114511
0.114283
0.114056
0.11383
0.113608
0.113389
0.113173
0.112962
0.112755
0.112553
0.112355
0.112163
0.111975
0.111791
0.111612
0.111438
0.111267
0.111101
0.110938
0.110779
0.110624
0.110473
0.110325
0.110182
0.110043
0.109908
0.109778
0.109652
0.109532
0.109416
0.109305
0.1092
0.109099
0.109004
0.108913
0.108826
0.108742
0.108662
0.108585
0.10851
0.108437
0.108365
0.108294
0.108223
0.108151
0.10808
0.108007
0.107934
0.10786
0.107785
0.107709
0.107633
0.107556
0.107478
0.107401
0.107323
0.107246
0.107168
0.107091
0.107015
0.106938
0.106862
0.106786
0.10671
0.106633
0.106557
0.10648
0.106402
0.106324
0.106245
0.106165
0.106085
0.106004
0.105923
0.105841
0.105759
0.105677
0.105595
0.105514
0.105434
0.105354
0.105275
0.105197
0.105121
0.105046
0.104973
0.104901
0.104832
0.104764
0.104698
0.104635
0.104573
0.104515
0.104458
0.104405
0.104355
0.104308
0.104264
0.104225
0.104189
0.104157
0.10413
0.104108
0.10409
0.104077
0.104069
0.104066
0.104068
0.104075
0.104075
0.1
0.099776
0.099578
0.0994203
0.0992977
0.0991941
0.099093
0.0989846
0.0988686
0.0987527
0.0986491
0.0985699
0.0985233
0.0985125
0.0985359
0.0985894
0.098668
0.0987675
0.0988854
0.09902
0.0991696
0.0993313
0.0995008
0.0996723
0.0998394
0.0999963
0.100139
0.100267
0.100382
0.100488
0.100591
0.100697
0.100811
0.100938
0.10108
0.101239
0.101416
0.10161
0.101823
0.102054
0.102303
0.102572
0.102858
0.103161
0.103479
0.103807
0.104143
0.104483
0.104821
0.105155
0.10548
0.105795
0.106099
0.106391
0.106673
0.106945
0.107209
0.10747
0.10773
0.107991
0.108257
0.108531
0.108815
0.109111
0.109421
0.109747
0.110088
0.110445
0.110817
0.111206
0.111608
0.112024
0.112452
0.112889
0.113335
0.113786
0.114242
0.114699
0.115157
0.115612
0.116066
0.116515
0.116961
0.117402
0.11784
0.118275
0.118707
0.119139
0.119572
0.120006
0.120445
0.120887
0.121336
0.121792
0.122255
0.122726
0.123205
0.123692
0.124187
0.124687
0.125194
0.125704
0.126217
0.12673
0.127242
0.12775
0.128252
0.128747
0.129232
0.129705
0.130164
0.130608
0.131036
0.131447
0.13184
0.132216
0.132573
0.132913
0.133237
0.133546
0.13384
0.134122
0.134393
0.134655
0.134909
0.135156
0.135399
0.135639
0.135876
0.136111
0.136346
0.136579
0.136812
0.137045
0.137276
0.137505
0.137731
0.137953
0.138171
0.138381
0.138584
0.138778
0.138961
0.139133
0.139292
0.139436
0.139566
0.139681
0.139781
0.139864
0.139932
0.139985
0.140023
0.140048
0.14006
0.140061
0.140051
0.140034
0.140009
0.139979
0.139945
0.139909
0.139871
0.139834
0.139798
0.139763
0.139731
0.139702
0.139676
0.139654
0.139634
0.139617
0.139603
0.139589
0.139576
0.139563
0.139549
0.139532
0.139511
0.139487
0.139456
0.139419
0.139375
0.139323
0.139262
0.139192
0.139113
0.139024
0.138926
0.138818
0.138702
0.138578
0.138446
0.138307
0.138161
0.138011
0.137855
0.137696
0.137535
0.13737
0.137205
0.137037
0.13687
0.136701
0.136532
0.136362
0.13619
0.136017
0.135842
0.135664
0.135482
0.135295
0.135103
0.134904
0.134697
0.134482
0.134258
0.134025
0.13378
0.133526
0.133261
0.132985
0.132699
0.132403
0.132098
0.131786
0.131466
0.131139
0.130809
0.130474
0.130138
0.1298
0.129463
0.129127
0.128794
0.128464
0.128138
0.127816
0.1275
0.127188
0.126882
0.126581
0.126285
0.125993
0.125705
0.12542
0.125138
0.124859
0.124581
0.124304
0.124029
0.123753
0.123479
0.123204
0.122929
0.122655
0.122382
0.122109
0.121838
0.121569
0.121302
0.121039
0.120778
0.120522
0.12027
0.120023
0.11978
0.119543
0.11931
0.119083
0.11886
0.118641
0.118425
0.118213
0.118002
0.117794
0.117586
0.117378
0.117169
0.116959
0.116747
0.116533
0.116317
0.116098
0.115877
0.115653
0.115427
0.115199
0.114971
0.114741
0.114512
0.114283
0.114056
0.113831
0.113608
0.113389
0.113173
0.112962
0.112755
0.112553
0.112355
0.112163
0.111975
0.111791
0.111612
0.111437
0.111267
0.1111
0.110938
0.110779
0.110624
0.110472
0.110325
0.110182
0.110042
0.109908
0.109777
0.109652
0.109531
0.109416
0.109305
0.1092
0.109099
0.109003
0.108912
0.108825
0.108742
0.108662
0.108585
0.10851
0.108436
0.108364
0.108293
0.108222
0.108151
0.108079
0.108007
0.107933
0.107859
0.107785
0.107709
0.107632
0.107556
0.107478
0.107401
0.107323
0.107246
0.107169
0.107092
0.107015
0.106939
0.106862
0.106786
0.10671
0.106634
0.106558
0.106481
0.106403
0.106325
0.106246
0.106167
0.106087
0.106006
0.105925
0.105843
0.105762
0.10568
0.105598
0.105517
0.105437
0.105358
0.105279
0.105202
0.105126
0.105051
0.104978
0.104907
0.104838
0.10477
0.104705
0.104641
0.10458
0.104522
0.104466
0.104412
0.104362
0.104315
0.104272
0.104232
0.104197
0.104165
0.104138
0.104116
0.104098
0.104085
0.104077
0.104074
0.104075
0.104082
0.104082
0.1
0.0997841
0.0995923
0.0994383
0.0993171
0.0992137
0.0991125
0.0990046
0.09889
0.0987763
0.0986753
0.0985985
0.098554
0.0985447
0.0985692
0.0986232
0.0987019
0.0988013
0.0989188
0.0990527
0.0992012
0.0993614
0.099529
0.0996982
0.0998628
0.100017
0.100158
0.100285
0.100398
0.100503
0.100605
0.10071
0.100822
0.100948
0.101088
0.101246
0.10142
0.101613
0.101823
0.102052
0.1023
0.102566
0.102851
0.103152
0.103467
0.103793
0.104127
0.104463
0.104799
0.10513
0.105453
0.105767
0.106069
0.10636
0.10664
0.106911
0.107176
0.107437
0.107697
0.107959
0.108226
0.108501
0.108787
0.109085
0.109397
0.109724
0.110067
0.110426
0.110801
0.111191
0.111596
0.112014
0.112443
0.112883
0.11333
0.113783
0.11424
0.114699
0.115157
0.115615
0.11607
0.116521
0.116968
0.117412
0.117852
0.118289
0.118724
0.119158
0.119594
0.120031
0.120472
0.120918
0.12137
0.121828
0.122294
0.122768
0.12325
0.123739
0.124235
0.124738
0.125246
0.125757
0.126271
0.126785
0.127297
0.127806
0.128308
0.128803
0.129287
0.12976
0.130219
0.130662
0.13109
0.131501
0.131893
0.132269
0.132626
0.132967
0.133291
0.1336
0.133895
0.134178
0.13445
0.134712
0.134967
0.135215
0.135459
0.135699
0.135936
0.136172
0.136406
0.13664
0.136873
0.137105
0.137336
0.137564
0.13779
0.138011
0.138227
0.138437
0.138639
0.138831
0.139013
0.139184
0.139341
0.139485
0.139614
0.139728
0.139827
0.13991
0.139977
0.14003
0.140068
0.140093
0.140105
0.140106
0.140097
0.14008
0.140056
0.140026
0.139992
0.139956
0.139919
0.139882
0.139845
0.139811
0.139778
0.139749
0.139723
0.1397
0.13968
0.139662
0.139647
0.139633
0.139619
0.139605
0.13959
0.139572
0.139551
0.139525
0.139494
0.139456
0.139412
0.139359
0.139298
0.139228
0.139149
0.13906
0.138962
0.138855
0.138739
0.138615
0.138484
0.138345
0.1382
0.13805
0.137895
0.137736
0.137574
0.13741
0.137244
0.137077
0.136908
0.136739
0.13657
0.136399
0.136227
0.136053
0.135877
0.135698
0.135515
0.135327
0.135134
0.134934
0.134727
0.134511
0.134287
0.134052
0.133808
0.133553
0.133288
0.133012
0.132726
0.13243
0.132125
0.131813
0.131493
0.131167
0.130836
0.130502
0.130165
0.129828
0.12949
0.129154
0.128821
0.12849
0.128163
0.127841
0.127524
0.127212
0.126905
0.126603
0.126306
0.126013
0.125724
0.125439
0.125156
0.124876
0.124598
0.124321
0.124044
0.123769
0.123493
0.123218
0.122944
0.122669
0.122395
0.122123
0.121851
0.121582
0.121314
0.12105
0.120789
0.120532
0.12028
0.120032
0.119789
0.119551
0.119318
0.11909
0.118866
0.118646
0.11843
0.118217
0.118006
0.117797
0.117588
0.11738
0.117171
0.11696
0.116748
0.116534
0.116318
0.116099
0.115877
0.115653
0.115427
0.1152
0.114971
0.114742
0.114512
0.114283
0.114056
0.113831
0.113609
0.113389
0.113174
0.112962
0.112755
0.112553
0.112355
0.112162
0.111974
0.111791
0.111612
0.111437
0.111266
0.1111
0.110937
0.110778
0.110623
0.110472
0.110325
0.110181
0.110042
0.109907
0.109777
0.109651
0.109531
0.109415
0.109305
0.109199
0.109098
0.109003
0.108911
0.108824
0.108741
0.108661
0.108584
0.108509
0.108435
0.108363
0.108292
0.108221
0.10815
0.108078
0.108006
0.107933
0.107859
0.107784
0.107708
0.107632
0.107555
0.107478
0.107401
0.107323
0.107246
0.107169
0.107092
0.107015
0.106939
0.106863
0.106787
0.106711
0.106635
0.106559
0.106482
0.106404
0.106327
0.106248
0.106169
0.106089
0.106008
0.105927
0.105846
0.105765
0.105683
0.105602
0.105522
0.105442
0.105363
0.105284
0.105207
0.105132
0.105058
0.104985
0.104914
0.104845
0.104778
0.104713
0.104649
0.104589
0.10453
0.104475
0.104422
0.104372
0.104325
0.104282
0.104242
0.104207
0.104175
0.104148
0.104126
0.104108
0.104095
0.104086
0.104083
0.104085
0.104092
0.104092
0.1
0.0997937
0.0996095
0.0994599
0.0993404
0.0992371
0.0991359
0.0990286
0.0989157
0.0988047
0.0987067
0.0986329
0.0985909
0.0985835
0.0986092
0.0986638
0.0987427
0.098842
0.098959
0.099092
0.0992391
0.0993975
0.0995627
0.0997292
0.0998909
0.100043
0.100181
0.100306
0.100418
0.100521
0.100622
0.100725
0.100836
0.10096
0.101098
0.101253
0.101426
0.101616
0.101824
0.102051
0.102296
0.10256
0.102842
0.10314
0.103452
0.103776
0.104106
0.10444
0.104772
0.1051
0.105421
0.105732
0.106032
0.106321
0.1066
0.106871
0.107135
0.107397
0.107657
0.10792
0.108189
0.108465
0.108752
0.109052
0.109366
0.109696
0.110041
0.110403
0.11078
0.111173
0.111581
0.112001
0.112433
0.112874
0.113324
0.113779
0.114237
0.114698
0.115158
0.115618
0.116074
0.116528
0.116977
0.117423
0.117866
0.118306
0.118744
0.119182
0.119621
0.120062
0.120506
0.120956
0.121411
0.121873
0.122343
0.122819
0.123304
0.123796
0.124295
0.1248
0.125309
0.125822
0.126337
0.126852
0.127365
0.127874
0.128376
0.128871
0.129355
0.129827
0.130285
0.130728
0.131156
0.131566
0.131958
0.132333
0.132691
0.133032
0.133357
0.133666
0.133962
0.134246
0.134518
0.134782
0.135037
0.135287
0.135531
0.135772
0.13601
0.136246
0.136481
0.136715
0.136947
0.137179
0.137409
0.137637
0.137861
0.138081
0.138296
0.138504
0.138705
0.138896
0.139076
0.139245
0.139402
0.139544
0.139672
0.139785
0.139883
0.139965
0.140032
0.140085
0.140123
0.140147
0.14016
0.140161
0.140153
0.140136
0.140112
0.140083
0.14005
0.140014
0.139977
0.13994
0.139903
0.139869
0.139836
0.139807
0.13978
0.139756
0.139735
0.139717
0.139701
0.139685
0.139671
0.139656
0.139639
0.139621
0.139598
0.139572
0.13954
0.139502
0.139457
0.139404
0.139342
0.139272
0.139193
0.139104
0.139007
0.1389
0.138785
0.138661
0.13853
0.138392
0.138247
0.138097
0.137943
0.137784
0.137622
0.137458
0.137292
0.137125
0.136956
0.136786
0.136616
0.136444
0.136271
0.136097
0.135919
0.135739
0.135555
0.135367
0.135172
0.134972
0.134763
0.134547
0.134321
0.134086
0.133841
0.133586
0.13332
0.133044
0.132758
0.132463
0.132158
0.131846
0.131526
0.1312
0.130869
0.130535
0.130199
0.129861
0.129523
0.129187
0.128853
0.128522
0.128195
0.127872
0.127554
0.127241
0.126933
0.12663
0.126332
0.126038
0.125748
0.125462
0.125179
0.124898
0.124618
0.124341
0.124064
0.123788
0.123512
0.123236
0.122961
0.122686
0.122412
0.122138
0.121867
0.121597
0.121329
0.121064
0.120803
0.120545
0.120292
0.120044
0.1198
0.119561
0.119327
0.119098
0.118873
0.118653
0.118436
0.118222
0.11801
0.1178
0.117591
0.117382
0.117172
0.116962
0.116749
0.116535
0.116318
0.116099
0.115878
0.115654
0.115428
0.1152
0.114971
0.114742
0.114513
0.114284
0.114057
0.113831
0.113609
0.11339
0.113174
0.112963
0.112756
0.112553
0.112355
0.112162
0.111974
0.11179
0.111611
0.111436
0.111266
0.111099
0.110937
0.110778
0.110623
0.110471
0.110324
0.110181
0.110042
0.109907
0.109777
0.109651
0.10953
0.109415
0.109304
0.109198
0.109098
0.109002
0.10891
0.108823
0.10874
0.10866
0.108582
0.108507
0.108434
0.108362
0.108291
0.10822
0.108149
0.108077
0.108005
0.107932
0.107858
0.107783
0.107708
0.107632
0.107555
0.107478
0.107401
0.107323
0.107246
0.107169
0.107092
0.107016
0.10694
0.106864
0.106788
0.106712
0.106636
0.10656
0.106483
0.106406
0.106328
0.10625
0.106171
0.106091
0.106011
0.105931
0.10585
0.105769
0.105688
0.105607
0.105527
0.105447
0.105368
0.105291
0.105214
0.105139
0.105065
0.104993
0.104923
0.104854
0.104787
0.104722
0.10466
0.104599
0.104541
0.104486
0.104433
0.104383
0.104337
0.104294
0.104254
0.104219
0.104187
0.10416
0.104138
0.10412
0.104107
0.104098
0.104095
0.104096
0.104103
0.104103
0.1
0.0998048
0.0996291
0.0994846
0.0993672
0.0992642
0.0991629
0.0990565
0.0989456
0.0988375
0.0987431
0.0986727
0.0986337
0.0986285
0.0986555
0.0987109
0.09879
0.098889
0.0990055
0.0991375
0.0992831
0.0994393
0.0996017
0.099765
0.0999234
0.100072
0.100208
0.10033
0.10044
0.100542
0.100641
0.100743
0.100852
0.100974
0.10111
0.101262
0.101431
0.101619
0.101824
0.102048
0.102291
0.102552
0.10283
0.103126
0.103435
0.103755
0.104082
0.104412
0.104741
0.105065
0.105383
0.105691
0.105988
0.106276
0.106553
0.106823
0.107088
0.107349
0.10761
0.107874
0.108144
0.108423
0.108712
0.109014
0.109331
0.109663
0.110011
0.110376
0.110756
0.111152
0.111562
0.111986
0.11242
0.112864
0.113316
0.113773
0.114234
0.114697
0.11516
0.115621
0.11608
0.116536
0.116988
0.117437
0.117882
0.118326
0.118768
0.11921
0.119653
0.120098
0.120547
0.121
0.12146
0.121926
0.1224
0.12288
0.123368
0.123864
0.124366
0.124873
0.125385
0.1259
0.126416
0.126932
0.127445
0.127954
0.128457
0.128951
0.129434
0.129906
0.130364
0.130806
0.131233
0.131643
0.132035
0.13241
0.132768
0.133109
0.133434
0.133745
0.134041
0.134326
0.1346
0.134864
0.135121
0.135371
0.135616
0.135858
0.136097
0.136333
0.136568
0.136802
0.137035
0.137266
0.137495