# vtk DataFile Version 3.0
LBM Fluid Grid
ASCII
DATASET STRUCTURED_POINTS
DIMENSIONS 400 150 1
ORIGIN 0 0 0
SPACING 1 1 1
POINT_DATA 60000
SCALARS VelocityMagnitude double 1
LOOKUP_TABLE default
0.1
0.0998389
0.0997189
0.0996457
0.0996152
0.0996178
0.0996425
0.0996804
0.0997261
0.0997776
0.0998347
0.0998971
0.0999627
0.100028
0.100087
0.100136
0.100173
0.100196
0.100209
0.100216
0.100222
0.100234
0.100254
0.100286
0.100332
0.100393
0.100469
0.10056
0.100668
0.100793
0.100938
0.101101
0.101285
0.101487
0.101707
0.101939
0.102182
0.10243
0.102679
0.102926
0.103168
0.103403
0.10363
0.10385
0.104063
0.104272
0.104478
0.104683
0.10489
0.105102
0.10532
0.105546
0.105783
0.106031
0.106293
0.10657
0.106861
0.107167
0.107489
0.107825
0.108175
0.108536
0.108909
0.109289
0.109676
0.110068
0.110463
0.110858
0.111253
0.111646
0.112037
0.112425
0.112812
0.113197
0.113582
0.113967
0.114355
0.114747
0.115144
0.115548
0.11596
0.116381
0.116812
0.117254
0.117707
0.118171
0.118645
0.11913
0.119624
0.120126
0.120634
0.121147
0.121663
0.12218
0.122696
0.123209
0.123717
0.124219
0.124712
0.125196
0.125669
0.12613
0.12658
0.127018
0.127444
0.127858
0.128262
0.128656
0.12904
0.129417
0.129787
0.130151
0.13051
0.130866
0.131219
0.13157
0.131919
0.132266
0.132613
0.132958
0.133302
0.133644
0.133983
0.13432
0.134651
0.134978
0.135298
0.135611
0.135914
0.136208
0.136491
0.136762
0.137021
0.137266
0.137497
0.137713
0.137915
0.138103
0.138276
0.138435
0.138581
0.138714
0.138836
0.138947
0.139048
0.13914
0.139225
0.139302
0.139375
0.139442
0.139506
0.139566
0.139624
0.13968
0.139735
0.139788
0.13984
0.13989
0.139939
0.139986
0.140031
0.140074
0.140114
0.14015
0.140181
0.140208
0.14023
0.140246
0.140256
0.140259
0.140255
0.140245
0.140228
0.140204
0.140174
0.140138
0.140096
0.140049
0.139998
0.139944
0.139887
0.139827
0.139767
0.139706
0.139646
0.139586
0.139528
0.139472
0.139419
0.139367
0.139319
0.139272
0.139228
0.139186
0.139145
0.139105
0.139065
0.139024
0.138982
0.138938
0.13889
0.138839
0.138783
0.138721
0.138654
0.138579
0.138498
0.138409
0.138313
0.138209
0.138098
0.137979
0.137854
0.137722
0.137584
0.137441
0.137293
0.137141
0.136986
0.136829
0.13667
0.136509
0.136349
0.136188
0.136027
0.135868
0.135709
0.135551
0.135394
0.135238
0.135083
0.134928
0.134772
0.134617
0.13446
0.134302
0.134141
0.133979
0.133813
0.133644
0.133471
0.133295
0.133114
0.132929
0.13274
0.132547
0.13235
0.13215
0.131947
0.131741
0.131534
0.131325
0.131115
0.130906
0.130697
0.130489
0.130282
0.130078
0.129876
0.129676
0.12948
0.129286
0.129096
0.128908
0.128722
0.128538
0.128356
0.128175
0.127995
0.127815
0.127633
0.127451
0.127267
0.12708
0.12689
0.126697
0.126501
0.126301
0.126097
0.125889
0.125678
0.125463
0.125245
0.125024
0.124801
0.124577
0.124351
0.124125
0.123898
0.123672
0.123447
0.123224
0.123001
0.122781
0.122563
0.122347
0.122133
0.121922
0.121712
0.121504
0.121297
0.121091
0.120887
0.120683
0.120479
0.120276
0.120073
0.11987
0.119667
0.119464
0.119261
0.119059
0.118857
0.118657
0.118458
0.118261
0.118066
0.117873
0.117684
0.117497
0.117315
0.117136
0.116961
0.116789
0.116622
0.116459
0.116299
0.116143
0.115991
0.115841
0.115694
0.11555
0.115408
0.115268
0.115129
0.114992
0.114856
0.114722
0.114588
0.114456
0.114325
0.114196
0.114069
0.113943
0.113819
0.113698
0.113579
0.113463
0.11335
0.11324
0.113132
0.113028
0.112927
0.112829
0.112733
0.11264
0.112549
0.112459
0.112372
0.112285
0.1122
0.112115
0.112031
0.111947
0.111863
0.111779
0.111695
0.111611
0.111526
0.111443
0.111359
0.111276
0.111194
0.111113
0.111033
0.110954
0.110878
0.110803
0.110731
0.110661
0.110594
0.110529
0.110467
0.110409
0.110353
0.1103
0.11025
0.110204
0.110161
0.110122
0.110086
0.110053
0.110025
0.11
0.109979
0.109963
0.109951
0.109943
0.10994
0.10994
0.1
0.0998385
0.0997182
0.0996447
0.0996141
0.0996166
0.0996413
0.0996791
0.0997247
0.0997762
0.0998333
0.0998957
0.0999613
0.100026
0.100086
0.100135
0.100172
0.100195
0.100208
0.100215
0.100221
0.100232
0.100253
0.100285
0.100331
0.100392
0.100468
0.10056
0.100667
0.100793
0.100937
0.101101
0.101285
0.101487
0.101707
0.10194
0.102182
0.102431
0.10268
0.102927
0.103169
0.103404
0.103632
0.103852
0.104065
0.104274
0.10448
0.104686
0.104893
0.105104
0.105322
0.105549
0.105785
0.106034
0.106296
0.106572
0.106863
0.10717
0.107491
0.107827
0.108177
0.108538
0.10891
0.109291
0.109678
0.11007
0.110464
0.110859
0.111254
0.111647
0.112038
0.112426
0.112813
0.113198
0.113582
0.113968
0.114355
0.114747
0.115143
0.115547
0.115959
0.116379
0.11681
0.117252
0.117704
0.118168
0.118642
0.119127
0.11962
0.120122
0.12063
0.121143
0.121659
0.122176
0.122692
0.123205
0.123713
0.124214
0.124707
0.125191
0.125664
0.126125
0.126575
0.127013
0.127438
0.127853
0.128256
0.12865
0.129034
0.129411
0.129781
0.130145
0.130504
0.13086
0.131212
0.131563
0.131912
0.13226
0.132606
0.132951
0.133295
0.133637
0.133977
0.134313
0.134645
0.134971
0.135292
0.135604
0.135908
0.136202
0.136485
0.136757
0.137015
0.13726
0.137491
0.137708
0.13791
0.138097
0.138271
0.13843
0.138576
0.138709
0.138831
0.138942
0.139043
0.139135
0.139219
0.139297
0.139369
0.139437
0.139501
0.139561
0.139619
0.139675
0.13973
0.139783
0.139835
0.139885
0.139934
0.139982
0.140027
0.14007
0.140109
0.140146
0.140177
0.140204
0.140226
0.140242
0.140252
0.140255
0.140252
0.140242
0.140225
0.140201
0.140171
0.140135
0.140093
0.140046
0.139995
0.139941
0.139884
0.139824
0.139764
0.139703
0.139643
0.139583
0.139525
0.139469
0.139416
0.139364
0.139316
0.139269
0.139225
0.139183
0.139142
0.139102
0.139062
0.139022
0.13898
0.138935
0.138888
0.138837
0.138781
0.138719
0.138652
0.138577
0.138496
0.138407
0.138311
0.138207
0.138096
0.137977
0.137851
0.137719
0.137581
0.137438
0.13729
0.137138
0.136983
0.136826
0.136667
0.136506
0.136346
0.136185
0.136024
0.135864
0.135706
0.135548
0.135391
0.135235
0.135079
0.134924
0.134769
0.134613
0.134456
0.134298
0.134138
0.133975
0.133809
0.13364
0.133468
0.133291
0.13311
0.132925
0.132736
0.132543
0.132346
0.132146
0.131943
0.131738
0.13153
0.131321
0.131112
0.130902
0.130693
0.130485
0.130279
0.130074
0.129872
0.129673
0.129476
0.129283
0.129092
0.128904
0.128719
0.128535
0.128353
0.128173
0.127992
0.127812
0.127631
0.127448
0.127264
0.127078
0.126888
0.126695
0.126499
0.126299
0.126095
0.125887
0.125676
0.125461
0.125243
0.125022
0.1248
0.124575
0.124349
0.124123
0.123897
0.123671
0.123446
0.123222
0.123001
0.12278
0.122562
0.122347
0.122133
0.121921
0.121711
0.121503
0.121296
0.121091
0.120886
0.120683
0.120479
0.120276
0.120073
0.11987
0.119667
0.119464
0.119261
0.119059
0.118858
0.118657
0.118458
0.118261
0.118066
0.117874
0.117684
0.117498
0.117315
0.117136
0.116961
0.11679
0.116623
0.116459
0.1163
0.116144
0.115991
0.115842
0.115695
0.11555
0.115408
0.115268
0.115129
0.114992
0.114856
0.114722
0.114589
0.114457
0.114326
0.114197
0.114069
0.113943
0.11382
0.113698
0.113579
0.113463
0.11335
0.11324
0.113133
0.113028
0.112927
0.112829
0.112733
0.11264
0.112548
0.112459
0.112372
0.112285
0.1122
0.112115
0.112031
0.111946
0.111862
0.111778
0.111694
0.11161
0.111526
0.111442
0.111359
0.111276
0.111193
0.111112
0.111032
0.110954
0.110877
0.110803
0.11073
0.11066
0.110593
0.110528
0.110467
0.110408
0.110352
0.110299
0.11025
0.110203
0.11016
0.110121
0.110085
0.110052
0.110024
0.109999
0.109978
0.109962
0.10995
0.109942
0.109939
0.109939
0.1
0.0998389
0.0997189
0.0996456
0.0996152
0.0996178
0.0996425
0.0996804
0.0997261
0.0997776
0.0998347
0.0998971
0.0999627
0.100028
0.100087
0.100136
0.100173
0.100196
0.100209
0.100216
0.100222
0.100234
0.100254
0.100286
0.100332
0.100393
0.100469
0.10056
0.100668
0.100793
0.100938
0.101101
0.101285
0.101487
0.101707
0.101939
0.102182
0.10243
0.102679
0.102926
0.103168
0.103403
0.10363
0.10385
0.104063
0.104272
0.104478
0.104683
0.10489
0.105102
0.10532
0.105546
0.105783
0.106031
0.106293
0.10657
0.106861
0.107167
0.107489
0.107825
0.108175
0.108536
0.108909
0.109289
0.109676
0.110068
0.110463
0.110858
0.111253
0.111646
0.112037
0.112425
0.112812
0.113197
0.113582
0.113967
0.114355
0.114747
0.115144
0.115548
0.11596
0.116381
0.116812
0.117254
0.117707
0.118171
0.118645
0.11913
0.119624
0.120126
0.120634
0.121147
0.121663
0.12218
0.122696
0.123209
0.123717
0.124219
0.124712
0.125196
0.125669
0.12613
0.12658
0.127018
0.127444
0.127858
0.128262
0.128655
0.12904
0.129417
0.129787
0.130151
0.13051
0.130866
0.131219
0.131569
0.131918
0.132266
0.132613
0.132958
0.133302
0.133644
0.133983
0.134319
0.134651
0.134978
0.135298
0.13561
0.135914
0.136208
0.136491
0.136762
0.137021
0.137266
0.137497
0.137713
0.137915
0.138103
0.138276
0.138435
0.138581
0.138714
0.138836
0.138947
0.139048
0.13914
0.139225
0.139303
0.139375
0.139442
0.139506
0.139566
0.139624
0.13968
0.139735
0.139788
0.13984
0.13989
0.139939
0.139987
0.140032
0.140075
0.140114
0.14015
0.140182
0.140209
0.140231
0.140247
0.140256
0.14026
0.140256
0.140246
0.140229
0.140205
0.140175
0.140139
0.140097
0.14005
0.139999
0.139945
0.139888
0.139828
0.139768
0.139707
0.139647
0.139587
0.13953
0.139473
0.13942
0.139368
0.13932
0.139273
0.139229
0.139187
0.139146
0.139106
0.139066
0.139025
0.138983
0.138939
0.138891
0.13884
0.138783
0.138722
0.138654
0.13858
0.138498
0.13841
0.138313
0.138209
0.138098
0.137979
0.137854
0.137722
0.137584
0.13744
0.137292
0.137141
0.136986
0.136828
0.136669
0.136509
0.136348
0.136187
0.136026
0.135867
0.135708
0.13555
0.135393
0.135237
0.135081
0.134926
0.134771
0.134615
0.134458
0.1343
0.13414
0.133977
0.133811
0.133642
0.133469
0.133292
0.133112
0.132927
0.132738
0.132545
0.132348
0.132148
0.131945
0.131739
0.131532
0.131323
0.131113
0.130904
0.130695
0.130487
0.13028
0.130076
0.129874
0.129675
0.129478
0.129285
0.129094
0.128906
0.12872
0.128537
0.128355
0.128174
0.127994
0.127814
0.127632
0.12745
0.127266
0.127079
0.12689
0.126697
0.126501
0.126301
0.126097
0.125889
0.125678
0.125463
0.125245
0.125024
0.124802
0.124577
0.124351
0.124125
0.123899
0.123673
0.123448
0.123225
0.123003
0.122783
0.122564
0.122349
0.122135
0.121923
0.121713
0.121505
0.121298
0.121093
0.120888
0.120684
0.120481
0.120278
0.120075
0.119872
0.119668
0.119466
0.119263
0.119061
0.118859
0.118659
0.11846
0.118263
0.118068
0.117875
0.117686
0.117499
0.117317
0.117138
0.116962
0.116791
0.116624
0.116461
0.116301
0.116145
0.115992
0.115843
0.115696
0.115551
0.115409
0.115269
0.11513
0.114993
0.114857
0.114723
0.114589
0.114457
0.114326
0.114197
0.11407
0.113944
0.11382
0.113699
0.11358
0.113464
0.113351
0.11324
0.113133
0.113029
0.112927
0.112829
0.112733
0.11264
0.112549
0.112459
0.112372
0.112285
0.1122
0.112115
0.112031
0.111946
0.111862
0.111778
0.111694
0.11161
0.111526
0.111442
0.111359
0.111276
0.111193
0.111112
0.111032
0.110954
0.110877
0.110803
0.11073
0.11066
0.110593
0.110528
0.110467
0.110408
0.110352
0.110299
0.11025
0.110203
0.11016
0.110121
0.110085
0.110052
0.110024
0.109999
0.109978
0.109962
0.10995
0.109942
0.109939
0.109939
0.1
0.0998401
0.0997211
0.0996485
0.0996185
0.0996213
0.0996462
0.0996842
0.09973
0.0997817
0.0998389
0.0999013
0.0999668
0.100032
0.100091
0.10014
0.100176
0.1002
0.100213
0.10022
0.100226
0.100237
0.100258
0.10029
0.100336
0.100396
0.100472
0.100563
0.10067
0.100795
0.100939
0.101103
0.101286
0.101488
0.101706
0.101938
0.10218
0.102427
0.102676
0.102922
0.103163
0.103397
0.103624
0.103843
0.104056
0.104265
0.10447
0.104676
0.104883
0.105094
0.105312
0.105538
0.105775
0.106024
0.106286
0.106562
0.106854
0.107161
0.107482
0.107819
0.108169
0.108531
0.108903
0.109284
0.109671
0.110063
0.110458
0.110853
0.111248
0.111642
0.112033
0.112422
0.112809
0.113195
0.11358
0.113966
0.114355
0.114747
0.115145
0.11555
0.115963
0.116385
0.116817
0.11726
0.117714
0.118179
0.118654
0.11914
0.119634
0.120137
0.120645
0.121159
0.121676
0.122193
0.12271
0.123223
0.123731
0.124233
0.124727
0.12521
0.125684
0.126145
0.126595
0.127033
0.12746
0.127874
0.128278
0.128672
0.129057
0.129435
0.129805
0.130169
0.130529
0.130885
0.131238
0.131589
0.131938
0.132286
0.132633
0.132978
0.133322
0.133664
0.134003
0.134339
0.134671
0.134997
0.135317
0.135629
0.135933
0.136226
0.136509
0.13678
0.137038
0.137282
0.137513
0.137729
0.137931
0.138118
0.138291
0.138451
0.138596
0.13873
0.138851
0.138962
0.139063
0.139156
0.13924
0.139318
0.13939
0.139458
0.139521
0.139582
0.13964
0.139696
0.13975
0.139803
0.139855
0.139905
0.139954
0.140001
0.140046
0.140088
0.140128
0.140163
0.140195
0.140222
0.140243
0.140259
0.140268
0.140271
0.140268
0.140257
0.14024
0.140216
0.140186
0.14015
0.140108
0.140062
0.140011
0.139956
0.139899
0.13984
0.13978
0.139719
0.139658
0.139599
0.139541
0.139485
0.139431
0.139379
0.13933
0.139284
0.13924
0.139197
0.139156
0.139115
0.139075
0.139034
0.138992
0.138947
0.138899
0.138848
0.138791
0.138729
0.138661
0.138587
0.138505
0.138416
0.13832
0.138216
0.138105
0.137986
0.13786
0.137728
0.13759
0.137447
0.137299
0.137148
0.136993
0.136835
0.136676
0.136516
0.136355
0.136194
0.136034
0.135874
0.135715
0.135557
0.1354
0.135244
0.135088
0.134933
0.134778
0.134622
0.134465
0.134307
0.134146
0.133983
0.133817
0.133648
0.133476
0.133299
0.133118
0.132933
0.132744
0.132551
0.132354
0.132154
0.131951
0.131746
0.131538
0.13133
0.13112
0.130911
0.130702
0.130494
0.130287
0.130083
0.129881
0.129682
0.129485
0.129292
0.129101
0.128913
0.128727
0.128543
0.128361
0.12818
0.128
0.127819
0.127638
0.127456
0.127271
0.127085
0.126895
0.126702
0.126506
0.126306
0.126102
0.125894
0.125683
0.125468
0.12525
0.12503
0.124807
0.124582
0.124357
0.124131
0.123904
0.123678
0.123453
0.12323
0.123008
0.122788
0.122569
0.122353
0.122139
0.121928
0.121718
0.121509
0.121303
0.121097
0.120892
0.120688
0.120485
0.120281
0.120078
0.119875
0.119672
0.119469
0.119266
0.119064
0.118862
0.118662
0.118463
0.118266
0.118071
0.117878
0.117688
0.117502
0.117319
0.11714
0.116965
0.116794
0.116626
0.116463
0.116303
0.116147
0.115994
0.115844
0.115697
0.115553
0.115411
0.11527
0.115132
0.114994
0.114858
0.114724
0.11459
0.114458
0.114327
0.114198
0.114071
0.113945
0.113821
0.1137
0.113581
0.113465
0.113351
0.113241
0.113134
0.113029
0.112928
0.112829
0.112734
0.11264
0.112549
0.11246
0.112372
0.112285
0.1122
0.112115
0.112031
0.111947
0.111863
0.111779
0.111694
0.11161
0.111526
0.111442
0.111359
0.111276
0.111194
0.111112
0.111033
0.110954
0.110878
0.110803
0.110731
0.110661
0.110594
0.110529
0.110467
0.110408
0.110353
0.1103
0.11025
0.110204
0.110161
0.110121
0.110085
0.110053
0.110024
0.11
0.109979
0.109963
0.109951
0.109943
0.10994
0.10994
0.1
0.0998422
0.0997247
0.0996533
0.0996239
0.0996272
0.0996523
0.0996905
0.0997365
0.0997885
0.0998459
0.0999083
0.0999736
0.100038
0.100097
0.100146
0.100182
0.100206
0.100219
0.100226
0.100232
0.100244
0.100264
0.100296
0.100341
0.100401
0.100476
0.100567
0.100674
0.100798
0.100942
0.101105
0.101287
0.101488
0.101706
0.101937
0.102177
0.102423
0.102671
0.102916
0.103156
0.103389
0.103614
0.103833
0.104045
0.104253
0.104458
0.104663
0.10487
0.105081
0.105299
0.105525
0.105762
0.106011
0.106273
0.10655
0.106842
0.107149
0.107471
0.107808
0.108158
0.108521
0.108893
0.109275
0.109662
0.110055
0.11045
0.110845
0.111241
0.111635
0.112027
0.112416
0.112804
0.113191
0.113577
0.113965
0.114354
0.114748
0.115148
0.115554
0.115968
0.116392
0.116826
0.11727
0.117726
0.118192
0.118669
0.119156
0.119651
0.120155
0.120665
0.12118
0.121697
0.122215
0.122732
0.123246
0.123755
0.124257
0.124751
0.125235
0.125709
0.126171
0.126621
0.127059
0.127486
0.127901
0.128306
0.128701
0.129086
0.129464
0.129835
0.1302
0.13056
0.130917
0.13127
0.131622
0.131971
0.132319
0.132666
0.133012
0.133355
0.133697
0.134036
0.134372
0.134703
0.135029
0.135348
0.13566
0.135963
0.136256
0.136538
0.136808
0.137066
0.13731
0.13754
0.137756
0.137957
0.138144
0.138317
0.138476
0.138622
0.138755
0.138877
0.138988
0.139089
0.139181
0.139266
0.139344
0.139416
0.139484
0.139547
0.139608
0.139665
0.139721
0.139775
0.139828
0.13988
0.13993
0.139978
0.140025
0.140069
0.140111
0.14015
0.140185
0.140216
0.140242
0.140264
0.140279
0.140288
0.140291
0.140287
0.140276
0.140259
0.140235
0.140205
0.140168
0.140127
0.14008
0.140029
0.139975
0.139918
0.139858
0.139798
0.139737
0.139677
0.139617
0.139559
0.139503
0.139449
0.139397
0.139348
0.139301
0.139257
0.139214
0.139172
0.139131
0.13909
0.139049
0.139006
0.138961
0.138913
0.138861
0.138804
0.138742
0.138673
0.138599
0.138517
0.138428
0.138331
0.138227
0.138116
0.137997
0.137872
0.13774
0.137602
0.137459
0.137311
0.13716
0.137005
0.136848
0.136689
0.136529
0.136368
0.136207
0.136047
0.135887
0.135728
0.13557
0.135413
0.135257
0.135101
0.134946
0.13479
0.134634
0.134477
0.134318
0.134158
0.133995
0.133829
0.13366
0.133487
0.13331
0.133129
0.132945
0.132756
0.132563
0.132366
0.132166
0.131963
0.131758
0.131551
0.131342
0.131133
0.130923
0.130714
0.130506
0.1303
0.130095
0.129893
0.129694
0.129497
0.129304
0.129113
0.128924
0.128738
0.128555
0.128372
0.128191
0.12801
0.12783
0.127648
0.127466
0.127281
0.127094
0.126904
0.126711
0.126515
0.126315
0.126111
0.125903
0.125692
0.125477
0.125259
0.125038
0.124816
0.124591
0.124365
0.124139
0.123913
0.123687
0.123462
0.123238
0.123016
0.122795
0.122577
0.122361
0.122147
0.121935
0.121725
0.121516
0.121309
0.121103
0.120898
0.120694
0.12049
0.120287
0.120083
0.11988
0.119677
0.119474
0.119271
0.119069
0.118867
0.118666
0.118467
0.11827
0.118075
0.117882
0.117692
0.117506
0.117323
0.117144
0.116968
0.116797
0.116629
0.116466
0.116306
0.11615
0.115997
0.115847
0.1157
0.115555
0.115413
0.115272
0.115133
0.114996
0.11486
0.114725
0.114592
0.11446
0.114329
0.1142
0.114072
0.113946
0.113822
0.113701
0.113582
0.113466
0.113352
0.113242
0.113135
0.11303
0.112929
0.11283
0.112734
0.112641
0.11255
0.11246
0.112372
0.112286
0.1122
0.112115
0.112031
0.111947
0.111863
0.111779
0.111695
0.111611
0.111527
0.111443
0.111359
0.111276
0.111194
0.111113
0.111033
0.110955
0.110878
0.110804
0.110732
0.110662
0.110595
0.11053
0.110468
0.11041
0.110354
0.110301
0.110252
0.110205
0.110162
0.110123
0.110087
0.110055
0.110026
0.110001
0.109981
0.109964
0.109952
0.109945
0.109942
0.109942
0.1
0.099845
0.0997298
0.0996599
0.0996315
0.0996353
0.0996608
0.0996993
0.0997456
0.0997979
0.0998555
0.0999179
0.0999831
0.100047
0.100106
0.100154
0.10019
0.100214
0.100227
0.100234
0.100241
0.100252
0.100272
0.100304
0.100349
0.100408
0.100483
0.100573
0.100679
0.100803
0.100945
0.101107
0.101289
0.101489
0.101705
0.101934
0.102173
0.102418
0.102663
0.102906
0.103145
0.103376
0.103601
0.103818
0.10403
0.104237
0.104441
0.104646
0.104852
0.105063
0.105281
0.105507
0.105744
0.105993
0.106256
0.106533
0.106825
0.107133
0.107456
0.107793
0.108144
0.108507
0.10888
0.109262
0.10965
0.110043
0.110438
0.110834
0.11123
0.111625
0.112018
0.112408
0.112797
0.113185
0.113573
0.113962
0.114354
0.11475
0.115151
0.115559
0.115976
0.116402
0.116838
0.117285
0.117742
0.11821
0.118689
0.119178
0.119676
0.120181
0.120692
0.121208
0.121727
0.122246
0.122764
0.123278
0.123788
0.12429
0.124785
0.125269
0.125743
0.126206
0.126657
0.127096
0.127523
0.127939
0.128345
0.12874
0.129127
0.129505
0.129877
0.130243
0.130604
0.130961
0.131315
0.131667
0.132017
0.132366
0.132713
0.133058
0.133402
0.133744
0.134083
0.134418
0.134749
0.135074
0.135393
0.135703
0.136006
0.136298
0.136579
0.136849
0.137105
0.137349
0.137578
0.137793
0.137994
0.138181
0.138354
0.138512
0.138658
0.138791
0.138913
0.139024
0.139125
0.139217
0.139302
0.13938
0.139452
0.13952
0.139583
0.139643
0.139701
0.139757
0.139811
0.139863
0.139914
0.139964
0.140011
0.140058
0.140101
0.140143
0.140181
0.140216
0.140246
0.140272
0.140292
0.140307
0.140315
0.140318
0.140314
0.140303
0.140285
0.140261
0.14023
0.140194
0.140152
0.140106
0.140055
0.14
0.139943
0.139884
0.139824
0.139763
0.139703
0.139643
0.139585
0.139528
0.139474
0.139422
0.139373
0.139325
0.13928
0.139237
0.139194
0.139153
0.139111
0.139069
0.139026
0.13898
0.138931
0.138879
0.138821
0.138759
0.13869
0.138615
0.138533
0.138444
0.138347
0.138243
0.138132
0.138013
0.137888
0.137756
0.137618
0.137475
0.137328
0.137177
0.137022
0.136865
0.136706
0.136546
0.136386
0.136225
0.136065
0.135905
0.135746
0.135588
0.135431
0.135275
0.135119
0.134963
0.134808
0.134651
0.134494
0.134335
0.134175
0.134012
0.133846
0.133676
0.133503
0.133327
0.133146
0.132961
0.132772
0.132579
0.132383
0.132183
0.13198
0.131775
0.131568
0.13136
0.13115
0.130941
0.130732
0.130524
0.130318
0.130113
0.129911
0.129712
0.129515
0.129321
0.12913
0.128941
0.128755
0.12857
0.128388
0.128206
0.128025
0.127844
0.127662
0.127479
0.127295
0.127107
0.126917
0.126724
0.126528
0.126327
0.126123
0.125915
0.125704
0.125489
0.125271
0.125051
0.124828
0.124603
0.124377
0.124151
0.123925
0.123698
0.123473
0.123249
0.123027
0.122806
0.122588
0.122371
0.122157
0.121944
0.121734
0.121525
0.121318
0.121112
0.120906
0.120702
0.120498
0.120294
0.12009
0.119887
0.119684
0.11948
0.119277
0.119075
0.118873
0.118672
0.118473
0.118276
0.11808
0.117887
0.117698
0.117511
0.117328
0.117148
0.116973
0.116801
0.116633
0.116469
0.116309
0.116153
0.116
0.11585
0.115702
0.115558
0.115415
0.115274
0.115135
0.114998
0.114862
0.114727
0.114594
0.114461
0.114331
0.114201
0.114073
0.113948
0.113824
0.113702
0.113583
0.113467
0.113354
0.113243
0.113136
0.113031
0.11293
0.112831
0.112735
0.112642
0.11255
0.112461
0.112373
0.112286
0.112201
0.112116
0.112032
0.111947
0.111863
0.111779
0.111695
0.111611
0.111527
0.111444
0.11136
0.111277
0.111195
0.111114
0.111034
0.110956
0.11088
0.110805
0.110733
0.110664
0.110596
0.110532
0.11047
0.110412
0.110356
0.110303
0.110254
0.110208
0.110165
0.110125
0.110089
0.110057
0.110028
0.110004
0.109983
0.109966
0.109954
0.109947
0.109944
0.109944
0.1
0.0998486
0.0997362
0.0996683
0.0996412
0.0996457
0.0996716
0.0997104
0.0997572
0.0998098
0.0998677
0.0999302
0.099995
0.100059
0.100117
0.100165
0.100201
0.100224
0.100238
0.100245
0.100252
0.100263
0.100283
0.100314
0.100358
0.100417
0.100491
0.10058
0.100685
0.100808
0.10095
0.10111
0.101291
0.101489
0.101704
0.101931
0.102168
0.10241
0.102654
0.102895
0.103131
0.103361
0.103583
0.103799
0.104009
0.104215
0.104419
0.104623
0.104829
0.10504
0.105257
0.105484
0.105721
0.10597
0.106233
0.106511
0.106804
0.107112
0.107436
0.107774
0.108125
0.108489
0.108863
0.109245
0.109634
0.110027
0.110423
0.11082
0.111217
0.111613
0.112006
0.112398
0.112789
0.113178
0.113568
0.113959
0.114353
0.114751
0.115155
0.115566
0.115986
0.116414
0.116853
0.117303
0.117763
0.118234
0.118716
0.119207
0.119707
0.120214
0.120727
0.121245
0.121765
0.122285
0.122804
0.12332
0.12383
0.124333
0.124828
0.125314
0.125788
0.126252
0.126703
0.127143
0.127571
0.127988
0.128395
0.128791
0.129179
0.129558
0.129931
0.130298
0.13066
0.131018
0.131373
0.131726
0.132077
0.132426
0.132773
0.133119
0.133462
0.133804
0.134142
0.134477
0.134807
0.135132
0.135449
0.135759
0.13606
0.136352
0.136632
0.1369
0.137156
0.137398
0.137627
0.137842
0.138042
0.138228
0.1384
0.138559
0.138704
0.138837
0.138959
0.13907
0.139171
0.139263
0.139348
0.139426
0.139498
0.139566
0.139629
0.13969
0.139747
0.139802
0.139856
0.139908
0.139958
0.140007
0.140054
0.1401
0.140143
0.140183
0.140221
0.140254
0.140284
0.140309
0.140328
0.140343
0.140351
0.140352
0.140348
0.140336
0.140318
0.140294
0.140263
0.140227
0.140185
0.140138
0.140087
0.140033
0.139976
0.139917
0.139857
0.139796
0.139736
0.139676
0.139618
0.139561
0.139506
0.139454
0.139404
0.139356
0.13931
0.139266
0.139223
0.139181
0.139139
0.139096
0.139051
0.139005
0.138955
0.138902
0.138844
0.138781
0.138711
0.138636
0.138553
0.138464
0.138367
0.138263
0.138152
0.138033
0.137908
0.137776
0.137639
0.137497
0.137349
0.137198
0.137044
0.136888
0.136729
0.136569
0.136409
0.136249
0.136088
0.135929
0.13577
0.135612
0.135455
0.135298
0.135142
0.134986
0.13483
0.134674
0.134516
0.134358
0.134197
0.134033
0.133867
0.133698
0.133525
0.133348
0.133167
0.132983
0.132794
0.132601
0.132405
0.132205
0.132003
0.131798
0.131591
0.131382
0.131173
0.130964
0.130755
0.130547
0.130341
0.130136
0.129934
0.129734
0.129537
0.129343
0.129151
0.128962
0.128776
0.128591
0.128408
0.128226
0.128044
0.127863
0.127681
0.127497
0.127312
0.127125
0.126934
0.126741
0.126544
0.126343
0.126139
0.125931
0.12572
0.125505
0.125287
0.125066
0.124843
0.124619
0.124393
0.124166
0.12394
0.123713
0.123488
0.123264
0.123041
0.12282
0.122601
0.122384
0.122169
0.121956
0.121746
0.121536
0.121329
0.121122
0.120916
0.120712
0.120507
0.120303
0.120099
0.119895
0.119692
0.119488
0.119285
0.119082
0.118881
0.11868
0.11848
0.118283
0.118087
0.117894
0.117704
0.117517
0.117334
0.117154
0.116978
0.116806
0.116638
0.116474
0.116314
0.116157
0.116004
0.115853
0.115706
0.115561
0.115418
0.115277
0.115138
0.115001
0.114864
0.114729
0.114596
0.114464
0.114333
0.114203
0.114075
0.11395
0.113826
0.113704
0.113585
0.113469
0.113355
0.113245
0.113137
0.113033
0.112931
0.112832
0.112736
0.112643
0.112551
0.112462
0.112374
0.112287
0.112201
0.112117
0.112032
0.111948
0.111864
0.11178
0.111696
0.111612
0.111528
0.111444
0.111361
0.111278
0.111196
0.111116
0.111036
0.110958
0.110882
0.110807
0.110735
0.110666
0.110599
0.110534
0.110473
0.110414
0.110358
0.110306
0.110256
0.11021
0.110167
0.110128
0.110092
0.11006
0.110031
0.110007
0.109986
0.109969
0.109957
0.10995
0.109947
0.109947
0.1
0.0998529
0.099744
0.0996784
0.0996528
0.0996582
0.0996846
0.0997239
0.0997711
0.0998242
0.0998825
0.0999449
0.100009
0.100072
0.10013
0.100177
0.100213
0.100236
0.10025
0.100258
0.100265
0.100276
0.100296
0.100326
0.10037
0.100427
0.1005
0.100588
0.100693
0.100814
0.100955
0.101114
0.101293
0.101489
0.101702
0.101927
0.102162
0.102401
0.102642
0.10288
0.103114
0.103341
0.103562
0.103776
0.103985
0.10419
0.104392
0.104596
0.104801
0.105012
0.105229
0.105455
0.105692
0.105942
0.106206
0.106484
0.106778
0.107087
0.107411
0.10775
0.108103
0.108467
0.108842
0.109225
0.109614
0.110008
0.110405
0.110803
0.1112
0.111597
0.111992
0.112385
0.112778
0.113169
0.113561
0.113955
0.114352
0.114753
0.11516
0.115575
0.115997
0.11643
0.116872
0.117325
0.117789
0.118263
0.118748
0.119242
0.119745
0.120255
0.12077
0.12129
0.121812
0.122334
0.122854
0.123371
0.123882
0.124386
0.124882
0.125368
0.125843
0.126308
0.12676
0.127201
0.12763
0.128048
0.128456
0.128854
0.129243
0.129623
0.129998
0.130366
0.130729
0.131088
0.131444
0.131798
0.132149
0.132499
0.132846
0.133192
0.133536
0.133877
0.134215
0.134549
0.134879
0.135202
0.135519
0.135827
0.136127
0.136417
0.136696
0.136963
0.137218
0.137459
0.137687
0.1379
0.1381
0.138285
0.138457
0.138615
0.13876
0.138893
0.139015
0.139126
0.139227
0.13932
0.139404
0.139482
0.139555
0.139622
0.139686
0.139746
0.139803
0.139858
0.139911
0.139962
0.140012
0.14006
0.140107
0.140151
0.140193
0.140233
0.140269
0.140302
0.14033
0.140354
0.140373
0.140386
0.140393
0.140394
0.140389
0.140377
0.140359
0.140334
0.140303
0.140266
0.140225
0.140178
0.140127
0.140073
0.140016
0.139957
0.139897
0.139836
0.139776
0.139716
0.139657
0.1396
0.139545
0.139493
0.139442
0.139393
0.139347
0.139302
0.139258
0.139215
0.139172
0.139128
0.139082
0.139035
0.138984
0.13893
0.138871
0.138807
0.138737
0.138661
0.138579
0.138489
0.138392
0.138287
0.138176
0.138058
0.137933
0.137802
0.137665
0.137522
0.137376
0.137225
0.137071
0.136915
0.136757
0.136598
0.136438
0.136277
0.136117
0.135958
0.135799
0.135641
0.135483
0.135327
0.13517
0.135014
0.134858
0.134702
0.134544
0.134385
0.134224
0.13406
0.133894
0.133724
0.133551
0.133374
0.133194
0.133009
0.13282
0.132628
0.132432
0.132232
0.13203
0.131825
0.131618
0.13141
0.131201
0.130992
0.130784
0.130576
0.130369
0.130165
0.129962
0.129762
0.129565
0.12937
0.129178
0.128989
0.128802
0.128616
0.128433
0.12825
0.128068
0.127886
0.127703
0.127519
0.127333
0.127145
0.126955
0.126761
0.126564
0.126363
0.126159
0.125951
0.125739
0.125524
0.125306
0.125085
0.124862
0.124637
0.124411
0.124185
0.123958
0.123731
0.123505
0.123281
0.123058
0.122836
0.122617
0.1224
0.122184
0.121971
0.12176
0.12155
0.121342
0.121135
0.120928
0.120723
0.120518
0.120314
0.12011
0.119906
0.119702
0.119498
0.119294
0.119092
0.118889
0.118688
0.118489
0.118291
0.118095
0.117902
0.117711
0.117524
0.117341
0.117161
0.116985
0.116812
0.116644
0.11648
0.116319
0.116162
0.116008
0.115857
0.11571
0.115564
0.115421
0.11528
0.115141
0.115003
0.114867
0.114732
0.114598
0.114466
0.114335
0.114206
0.114078
0.113952
0.113828
0.113706
0.113587
0.113471
0.113357
0.113247
0.113139
0.113035
0.112933
0.112834
0.112738
0.112644
0.112552
0.112463
0.112375
0.112288
0.112202
0.112117
0.112033
0.111949
0.111865
0.111781
0.111697
0.111613
0.111529
0.111446
0.111362
0.11128
0.111198
0.111117
0.111038
0.11096
0.110884
0.11081
0.110738
0.110668
0.110601
0.110537
0.110476
0.110417
0.110362
0.110309
0.11026
0.110214
0.110171
0.110132
0.110096
0.110063
0.110035
0.11001
0.10999
0.109973
0.109961
0.109953
0.10995
0.10995
0.1
0.099858
0.099753
0.0996903
0.0996664
0.0996727
0.0996997
0.0997395
0.0997873
0.099841
0.0998995
0.099962
0.100026
0.100088
0.100145
0.100192
0.100227
0.100251
0.100265
0.100273
0.10028
0.100291
0.10031
0.10034
0.100383
0.10044
0.100511
0.100598
0.100701
0.100822
0.100961
0.101118
0.101295
0.10149
0.1017
0.101922
0.102154
0.10239
0.102627
0.102863
0.103094
0.103318
0.103537
0.103749
0.103956
0.104159
0.104361
0.104563
0.104768
0.104978
0.105195
0.105421
0.105659
0.105909
0.106173
0.106452
0.106747
0.107057
0.107382
0.107722
0.108076
0.108441
0.108816
0.1092
0.109591
0.109985
0.110383
0.110782
0.11118
0.111578
0.111975
0.11237
0.112764
0.113159
0.113553
0.11395
0.11435
0.114755
0.115166
0.115584
0.116011
0.116447
0.116894
0.117351
0.117819
0.118297
0.118786
0.119283
0.119789
0.120302
0.120821
0.121343
0.121867
0.122391
0.122912
0.123431
0.123943
0.124448
0.124945
0.125432
0.125909
0.126374
0.126828
0.12727
0.1277
0.128119
0.128528
0.128928
0.129318
0.129701
0.130076
0.130446
0.130811
0.131171
0.131529
0.131883
0.132235
0.132585
0.132933
0.133279
0.133623
0.133964
0.134301
0.134635
0.134963
0.135285
0.135601
0.135908
0.136206
0.136495
0.136772
0.137038
0.137291
0.137531
0.137757
0.13797
0.138168
0.138353
0.138524
0.138682
0.138827
0.13896
0.139081
0.139192
0.139293
0.139386
0.139471
0.139549