# vtk DataFile Version 3.0
LBM Fluid Grid
ASCII
DATASET STRUCTURED_POINTS
DIMENSIONS 400 150 1
ORIGIN 0 0 0
SPACING 1 1 1
POINT_DATA 60000
SCALARS VelocityMagnitude double 1
LOOKUP_TABLE default
0.1
0.0999899
0.0999801
0.0999633
0.0999351
0.0998953
0.0998477
0.0997992
0.0997574
0.0997288
0.0997179
0.0997264
0.0997538
0.0997981
0.0998566
0.0999265
0.100006
0.100092
0.100184
0.10028
0.100379
0.100478
0.100577
0.100673
0.100767
0.100857
0.100944
0.101029
0.101114
0.101199
0.101286
0.101378
0.101476
0.101581
0.101695
0.10182
0.101957
0.102107
0.102271
0.102449
0.102642
0.102849
0.103069
0.1033
0.10354
0.103788
0.104042
0.1043
0.104561
0.104824
0.105088
0.105353
0.105619
0.105885
0.106154
0.106425
0.106699
0.106978
0.107263
0.107554
0.107855
0.108164
0.108485
0.108817
0.109162
0.109519
0.10989
0.110274
0.11067
0.111078
0.111497
0.111926
0.112364
0.112808
0.113259
0.113714
0.114172
0.114632
0.115093
0.115555
0.116017
0.116478
0.116938
0.117397
0.117857
0.118315
0.118775
0.119235
0.119696
0.120159
0.120624
0.121092
0.121562
0.122036
0.122512
0.122992
0.123474
0.123958
0.124443
0.124928
0.125414
0.125897
0.126378
0.126854
0.127325
0.12779
0.128247
0.128694
0.129132
0.129558
0.129973
0.130376
0.130765
0.131142
0.131506
0.131857
0.132195
0.132521
0.132835
0.133138
0.13343
0.133713
0.133987
0.134253
0.134512
0.134764
0.135009
0.13525
0.135485
0.135716
0.135942
0.136164
0.136381
0.136594
0.136803
0.137006
0.137205
0.137397
0.137584
0.137763
0.137935
0.1381
0.138256
0.138404
0.138543
0.138672
0.138793
0.138904
0.139006
0.139098
0.139182
0.139258
0.139325
0.139385
0.139438
0.139485
0.139526
0.139563
0.139595
0.139623
0.139649
0.139672
0.139692
0.139712
0.13973
0.139747
0.139763
0.139778
0.139792
0.139805
0.139816
0.139826
0.139834
0.139839
0.139841
0.13984
0.139835
0.139825
0.139811
0.139791
0.139766
0.139735
0.139698
0.139654
0.139605
0.13955
0.139488
0.139421
0.139349
0.139271
0.13919
0.139103
0.139014
0.138921
0.138826
0.138729
0.138631
0.138532
0.138432
0.138332
0.138232
0.138133
0.138034
0.137935
0.137837
0.13774
0.137643
0.137546
0.137449
0.137352
0.137254
0.137155
0.137054
0.136952
0.136848
0.136741
0.136632
0.13652
0.136406
0.136289
0.136169
0.136046
0.135921
0.135794
0.135665
0.135535
0.135403
0.135272
0.13514
0.135008
0.134877
0.134748
0.13462
0.134495
0.134371
0.134251
0.134133
0.134018
0.133907
0.133798
0.133691
0.133588
0.133487
0.133388
0.13329
0.133194
0.133099
0.133005
0.132911
0.132816
0.132721
0.132625
0.132528
0.13243
0.132331
0.13223
0.132127
0.132023
0.131918
0.131811
0.131704
0.131596
0.131488
0.13138
0.131272
0.131165
0.131059
0.130954
0.13085
0.130749
0.130649
0.130552
0.130456
0.130363
0.130271
0.130182
0.130095
0.130008
0.129924
0.12984
0.129757
0.129675
0.129592
0.12951
0.129427
0.129344
0.129259
0.129174
0.129088
0.129
0.128911
0.128822
0.128731
0.12864
0.128548
0.128456
0.128364
0.128272
0.128181
0.12809
0.128001
0.127913
0.127826
0.127742
0.127659
0.127579
0.127501
0.127425
0.127351
0.127279
0.127208
0.12714
0.127073
0.127007
0.126943
0.126879
0.126815
0.126752
0.126689
0.126625
0.126561
0.126497
0.126432
0.126366
0.126299
0.126231
0.126163
0.126094
0.126025
0.125955
0.125885
0.125814
0.125744
0.125674
0.125604
0.125534
0.125465
0.125397
0.125329
0.125262
0.125195
0.125129
0.125064
0.124998
0.124934
0.124869
0.124804
0.124739
0.124674
0.124609
0.124543
0.124477
0.12441
0.124343
0.124275
0.124207
0.124138
0.124069
0.124
0.123931
0.123863
0.123796
0.123729
0.123663
0.123599
0.123537
0.123476
0.123418
0.123362
0.123308
0.123257
0.123209
0.123163
0.12312
0.12308
0.123042
0.123007
0.122975
0.122944
0.122916
0.12289
0.122865
0.122842
0.122821
0.122802
0.122783
0.122766
0.122751
0.122736
0.122723
0.122711
0.122701
0.122692
0.122685
0.122679
0.122675
0.122674
0.122674
0.122676
0.122676
0.1
0.09999
0.0999802
0.0999635
0.0999354
0.0998955
0.0998479
0.0997994
0.0997574
0.0997288
0.0997178
0.0997263
0.0997538
0.0997981
0.0998566
0.0999266
0.100006
0.100092
0.100184
0.100281
0.100379
0.100479
0.100577
0.100674
0.100767
0.100857
0.100945
0.10103
0.101114
0.101199
0.101287
0.101379
0.101477
0.101582
0.101696
0.101821
0.101958
0.102108
0.102272
0.10245
0.102644
0.10285
0.10307
0.103301
0.103541
0.103789
0.104044
0.104302
0.104563
0.104826
0.10509
0.105355
0.105621
0.105888
0.106156
0.106427
0.106701
0.10698
0.107265
0.107557
0.107857
0.108166
0.108487
0.108819
0.109164
0.109521
0.109892
0.110275
0.110671
0.111079
0.111498
0.111927
0.112364
0.112809
0.113259
0.113714
0.114172
0.114632
0.115093
0.115555
0.116016
0.116477
0.116937
0.117396
0.117855
0.118314
0.118773
0.119232
0.119693
0.120156
0.120621
0.121088
0.121559
0.122032
0.122508
0.122987
0.123469
0.123953
0.124438
0.124923
0.125408
0.125892
0.126372
0.126848
0.12732
0.127784
0.128241
0.128688
0.129126
0.129552
0.129967
0.130369
0.130759
0.131136
0.1315
0.13185
0.132188
0.132514
0.132828
0.133131
0.133424
0.133707
0.133981
0.134247
0.134505
0.134757
0.135003
0.135243
0.135478
0.135709
0.135935
0.136157
0.136375
0.136588
0.136796
0.137
0.137198
0.137391
0.137577
0.137757
0.137929
0.138094
0.13825
0.138398
0.138537
0.138667
0.138787
0.138898
0.139
0.139093
0.139177
0.139252
0.13932
0.13938
0.139433
0.13948
0.139521
0.139557
0.139589
0.139618
0.139643
0.139666
0.139687
0.139707
0.139725
0.139742
0.139758
0.139773
0.139787
0.1398
0.139812
0.139822
0.139829
0.139835
0.139837
0.139836
0.139831
0.139821
0.139807
0.139788
0.139763
0.139732
0.139695
0.139652
0.139602
0.139547
0.139486
0.139419
0.139347
0.139269
0.139188
0.139102
0.139012
0.13892
0.138825
0.138728
0.13863
0.138531
0.138431
0.138331
0.138231
0.138132
0.138033
0.137935
0.137837
0.13774
0.137643
0.137547
0.13745
0.137353
0.137255
0.137156
0.137055
0.136953
0.136849
0.136742
0.136633
0.136522
0.136407
0.13629
0.13617
0.136047
0.135922
0.135795
0.135666
0.135536
0.135405
0.135273
0.135141
0.135009
0.134878
0.134749
0.134621
0.134495
0.134372
0.134251
0.134133
0.134018
0.133906
0.133797
0.133691
0.133587
0.133486
0.133386
0.133289
0.133193
0.133097
0.133003
0.132908
0.132814
0.132718
0.132622
0.132525
0.132427
0.132327
0.132226
0.132123
0.132019
0.131913
0.131806
0.131699
0.131591
0.131482
0.131374
0.131266
0.131159
0.131052
0.130947
0.130844
0.130742
0.130642
0.130544
0.130449
0.130355
0.130264
0.130174
0.130087
0.130001
0.129916
0.129832
0.129749
0.129667
0.129584
0.129502
0.129419
0.129336
0.129251
0.129166
0.12908
0.128993
0.128904
0.128815
0.128724
0.128633
0.128541
0.128449
0.128357
0.128266
0.128174
0.128084
0.127995
0.127907
0.127821
0.127737
0.127655
0.127575
0.127497
0.127421
0.127347
0.127276
0.127206
0.127138
0.127071
0.127006
0.126942
0.126878
0.126815
0.126752
0.126689
0.126626
0.126562
0.126498
0.126433
0.126368
0.126301
0.126234
0.126166
0.126097
0.126028
0.125958
0.125889
0.125818
0.125748
0.125678
0.125609
0.125539
0.125471
0.125402
0.125335
0.125268
0.125201
0.125135
0.12507
0.125005
0.12494
0.124876
0.124811
0.124746
0.124681
0.124616
0.12455
0.124484
0.124417
0.12435
0.124282
0.124214
0.124145
0.124076
0.124007
0.123938
0.12387
0.123802
0.123735
0.12367
0.123605
0.123543
0.123482
0.123424
0.123368
0.123314
0.123263
0.123214
0.123168
0.123125
0.123085
0.123047
0.123012
0.122979
0.122948
0.12292
0.122893
0.122869
0.122846
0.122825
0.122805
0.122786
0.122769
0.122753
0.122739
0.122726
0.122714
0.122703
0.122694
0.122687
0.122681
0.122678
0.122676
0.122676
0.122678
0.122678
0.1
0.0999899
0.0999801
0.0999633
0.0999351
0.0998953
0.0998477
0.0997992
0.0997574
0.0997288
0.0997179
0.0997264
0.0997538
0.0997981
0.0998566
0.0999266
0.100006
0.100092
0.100184
0.10028
0.100379
0.100478
0.100577
0.100673
0.100767
0.100857
0.100944
0.101029
0.101114
0.101199
0.101286
0.101378
0.101476
0.101581
0.101695
0.10182
0.101957
0.102107
0.102271
0.102449
0.102642
0.102849
0.103069
0.1033
0.10354
0.103788
0.104042
0.1043
0.104561
0.104824
0.105088
0.105353
0.105619
0.105885
0.106154
0.106425
0.106699
0.106978
0.107263
0.107554
0.107855
0.108164
0.108485
0.108817
0.109162
0.109519
0.10989
0.110274
0.11067
0.111078
0.111497
0.111926
0.112364
0.112808
0.113259
0.113714
0.114172
0.114632
0.115093
0.115555
0.116017
0.116478
0.116938
0.117398
0.117857
0.118316
0.118775
0.119235
0.119696
0.120159
0.120624
0.121092
0.121562
0.122036
0.122512
0.122992
0.123474
0.123958
0.124443
0.124928
0.125414
0.125897
0.126378
0.126854
0.127325
0.12779
0.128246
0.128694
0.129132
0.129558
0.129973
0.130375
0.130765
0.131142
0.131506
0.131856
0.132195
0.13252
0.132835
0.133138
0.13343
0.133713
0.133987
0.134253
0.134511
0.134763
0.135009
0.135249
0.135484
0.135715
0.135941
0.136163
0.13638
0.136594
0.136802
0.137006
0.137204
0.137396
0.137583
0.137762
0.137934
0.138099
0.138255
0.138403
0.138541
0.138671
0.138791
0.138902
0.139004
0.139097
0.139181
0.139256
0.139324
0.139383
0.139437
0.139483
0.139525
0.139561
0.139593
0.139622
0.139647
0.13967
0.139691
0.13971
0.139728
0.139745
0.139761
0.139776
0.139791
0.139803
0.139815
0.139825
0.139833
0.139838
0.13984
0.139839
0.139834
0.139825
0.13981
0.139791
0.139766
0.139735
0.139698
0.139655
0.139606
0.139551
0.139489
0.139423
0.13935
0.139273
0.139191
0.139106
0.139016
0.138924
0.138829
0.138732
0.138634
0.138535
0.138436
0.138336
0.138236
0.138137
0.138038
0.13794
0.137842
0.137745
0.137649
0.137552
0.137455
0.137358
0.13726
0.137161
0.137061
0.136959
0.136854
0.136748
0.136639
0.136527
0.136413
0.136295
0.136175
0.136053
0.135928
0.135801
0.135672
0.135541
0.13541
0.135278
0.135146
0.135014
0.134883
0.134753
0.134625
0.1345
0.134376
0.134255
0.134137
0.134022
0.13391
0.1338
0.133694
0.13359
0.133488
0.133389
0.133291
0.133195
0.133099
0.133004
0.132909
0.132814
0.132719
0.132623
0.132525
0.132427
0.132327
0.132225
0.132122
0.132017
0.131912
0.131805
0.131697
0.131589
0.13148
0.131371
0.131263
0.131156
0.131049
0.130944
0.13084
0.130738
0.130638
0.13054
0.130445
0.130351
0.130259
0.13017
0.130082
0.129996
0.129911
0.129827
0.129744
0.129662
0.129579
0.129497
0.129414
0.129331
0.129246
0.129161
0.129075
0.128988
0.128899
0.12881
0.12872
0.128629
0.128537
0.128445
0.128354
0.128262
0.128171
0.128081
0.127992
0.127905
0.127819
0.127735
0.127653
0.127574
0.127496
0.12742
0.127347
0.127276
0.127206
0.127139
0.127072
0.127007
0.126943
0.12688
0.126817
0.126755
0.126692
0.126629
0.126566
0.126502
0.126438
0.126372
0.126306
0.126239
0.126172
0.126103
0.126034
0.125965
0.125895
0.125826
0.125756
0.125686
0.125617
0.125548
0.125479
0.125411
0.125344
0.125277
0.12521
0.125145
0.12508
0.125015
0.12495
0.124885
0.124821
0.124756
0.124691
0.124626
0.12456
0.124494
0.124427
0.12436
0.124292
0.124224
0.124155
0.124086
0.124017
0.123948
0.123879
0.123812
0.123745
0.123679
0.123614
0.123552
0.123491
0.123432
0.123376
0.123322
0.123271
0.123222
0.123176
0.123133
0.123092
0.123054
0.123018
0.122985
0.122955
0.122926
0.122899
0.122874
0.122851
0.12283
0.12281
0.122791
0.122774
0.122758
0.122743
0.12273
0.122718
0.122707
0.122698
0.122691
0.122685
0.122681
0.122679
0.122679
0.122682
0.122682
0.1
0.0999897
0.0999795
0.0999625
0.0999342
0.0998944
0.0998471
0.0997988
0.0997572
0.0997288
0.099718
0.0997266
0.099754
0.0997982
0.0998565
0.0999264
0.100005
0.100092
0.100184
0.10028
0.100378
0.100477
0.100576
0.100672
0.100765
0.100855
0.100942
0.101027
0.101112
0.101197
0.101284
0.101376
0.101474
0.101579
0.101693
0.101817
0.101954
0.102104
0.102268
0.102446
0.102639
0.102846
0.103065
0.103295
0.103535
0.103783
0.104037
0.104295
0.104555
0.104818
0.105082
0.105346
0.105612
0.105879
0.106147
0.106418
0.106692
0.106971
0.107256
0.107548
0.107848
0.108158
0.108479
0.108811
0.109156
0.109514
0.109885
0.110269
0.110666
0.111075
0.111494
0.111923
0.112361
0.112806
0.113257
0.113713
0.114171
0.114632
0.115094
0.115556
0.116018
0.11648
0.116941
0.117401
0.117861
0.11832
0.11878
0.119241
0.119703
0.120167
0.120633
0.121102
0.121573
0.122047
0.122525
0.123005
0.123488
0.123972
0.124458
0.124944
0.12543
0.125914
0.126395
0.126872
0.127343
0.127808
0.128264
0.128712
0.12915
0.129576
0.129991
0.130394
0.130784
0.13116
0.131524
0.131875
0.132213
0.132539
0.132853
0.133156
0.133449
0.133732
0.134006
0.134272
0.13453
0.134782
0.135028
0.135268
0.135503
0.135734
0.13596
0.136181
0.136399
0.136612
0.13682
0.137023
0.137221
0.137413
0.137599
0.137778
0.13795
0.138114
0.13827
0.138418
0.138556
0.138685
0.138806
0.138916
0.139018
0.13911
0.139194
0.139269
0.139337
0.139397
0.13945
0.139496
0.139538
0.139574
0.139606
0.139634
0.13966
0.139682
0.139703
0.139722
0.13974
0.139757
0.139773
0.139788
0.139802
0.139815
0.139826
0.139836
0.139843
0.139848
0.13985
0.139849
0.139844
0.139834
0.13982
0.1398
0.139775
0.139744
0.139707
0.139664
0.139615
0.13956
0.139499
0.139432
0.13936
0.139283
0.139201
0.139115
0.139026
0.138934
0.138839
0.138743
0.138645
0.138546
0.138446
0.138346
0.138247
0.138147
0.138049
0.13795
0.137853
0.137756
0.137659
0.137562
0.137465
0.137368
0.13727
0.137171
0.137071
0.136969
0.136864
0.136758
0.136649
0.136537
0.136422
0.136305
0.136185
0.136062
0.135937
0.13581
0.135681
0.135551
0.135419
0.135287
0.135155
0.135023
0.134892
0.134763
0.134635
0.134508
0.134385
0.134264
0.134145
0.13403
0.133918
0.133808
0.133701
0.133597
0.133495
0.133395
0.133297
0.1332
0.133105
0.133009
0.132914
0.132819
0.132723
0.132626
0.132529
0.13243
0.132329
0.132228
0.132124
0.13202
0.131914
0.131806
0.131698
0.13159
0.131481
0.131372
0.131264
0.131156
0.131049
0.130944
0.13084
0.130738
0.130638
0.130539
0.130444
0.13035
0.130258
0.130168
0.13008
0.129994
0.129909
0.129825
0.129742
0.129659
0.129577
0.129495
0.129412
0.129328
0.129244
0.129159
0.129073
0.128986
0.128897
0.128808
0.128718
0.128627
0.128536
0.128444
0.128353
0.128262
0.128171
0.128081
0.127993
0.127906
0.12782
0.127737
0.127655
0.127575
0.127498
0.127423
0.12735
0.127279
0.12721
0.127142
0.127076
0.127012
0.126948
0.126885
0.126823
0.12676
0.126698
0.126635
0.126573
0.126509
0.126445
0.12638
0.126314
0.126248
0.12618
0.126112
0.126044
0.125975
0.125906
0.125836
0.125766
0.125697
0.125628
0.125559
0.125491
0.125423
0.125356
0.125289
0.125223
0.125157
0.125092
0.125027
0.124963
0.124898
0.124834
0.124769
0.124704
0.124639
0.124573
0.124507
0.12444
0.124373
0.124305
0.124236
0.124167
0.124098
0.124029
0.12396
0.123892
0.123824
0.123757
0.123691
0.123626
0.123563
0.123502
0.123443
0.123387
0.123333
0.123281
0.123232
0.123186
0.123142
0.123101
0.123063
0.123027
0.122994
0.122963
0.122934
0.122907
0.122882
0.122858
0.122837
0.122816
0.122798
0.12278
0.122764
0.122749
0.122736
0.122723
0.122713
0.122703
0.122696
0.12269
0.122686
0.122684
0.122684
0.122686
0.122686
0.1
0.0999893
0.0999787
0.0999612
0.0999327
0.099893
0.099846
0.0997981
0.0997569
0.0997288
0.0997182
0.0997268
0.0997542
0.0997983
0.0998564
0.0999261
0.100005
0.100091
0.100183
0.100278
0.100377
0.100476
0.100574
0.10067
0.100763
0.100853
0.10094
0.101024
0.101109
0.101194
0.101281
0.101373
0.10147
0.101575
0.101689
0.101813
0.10195
0.102099
0.102263
0.102441
0.102634
0.10284
0.103059
0.103289
0.103528
0.103775
0.104028
0.104286
0.104546
0.104808
0.105071
0.105336
0.105601
0.105867
0.106135
0.106406
0.10668
0.106959
0.107244
0.107536
0.107837
0.108147
0.108469
0.108802
0.109147
0.109506
0.109877
0.110262
0.110659
0.111069
0.111489
0.111919
0.112357
0.112803
0.113255
0.113711
0.11417
0.114632
0.115094
0.115558
0.116021
0.116483
0.116945
0.117407
0.117868
0.118329
0.11879
0.119252
0.119716
0.120181
0.120648
0.121118
0.121591
0.122067
0.122546
0.123027
0.123511
0.123997
0.124483
0.124971
0.125457
0.125942
0.126423
0.126901
0.127372
0.127837
0.128294
0.128742
0.12918
0.129607
0.130022
0.130425
0.130814
0.131191
0.131555
0.131906
0.132245
0.132571
0.132885
0.133188
0.133481
0.133764
0.134038
0.134304
0.134562
0.134814
0.13506
0.1353
0.135535
0.135765
0.135991
0.136213
0.13643
0.136642
0.13685
0.137053
0.13725
0.137442
0.137627
0.137806
0.137977
0.138141
0.138296
0.138443
0.138581
0.13871
0.13883
0.13894
0.139041
0.139133
0.139217
0.139292
0.139359
0.139419
0.139472
0.139518
0.139559
0.139596
0.139627
0.139656
0.139681
0.139704
0.139724
0.139743
0.139761
0.139778
0.139793
0.139808
0.139821
0.139834
0.139845
0.139854
0.139861
0.139866
0.139868
0.139866
0.139861
0.139851
0.139836
0.139816
0.139791
0.139759
0.139722
0.139679
0.13963
0.139575
0.139514
0.139447
0.139375
0.139298
0.139216
0.139131
0.139042
0.138949
0.138855
0.138758
0.13866
0.138561
0.138462
0.138362
0.138263
0.138163
0.138065
0.137966
0.137869
0.137771
0.137674
0.137578
0.137481
0.137383
0.137285
0.137186
0.137085
0.136983
0.136878
0.136772
0.136663
0.136551
0.136436
0.136319
0.136199
0.136076
0.135951
0.135824
0.135695
0.135564
0.135433
0.135301
0.135169
0.135037
0.134906
0.134776
0.134648
0.134522
0.134398
0.134277
0.134158
0.134042
0.13393
0.13382
0.133713
0.133608
0.133506
0.133405
0.133307
0.13321
0.133114
0.133018
0.132922
0.132827
0.132731
0.132634
0.132536
0.132436
0.132336
0.132233
0.13213
0.132025
0.131919
0.131811
0.131703
0.131594
0.131485
0.131376
0.131268
0.13116
0.131053
0.130947
0.130843
0.130741
0.13064
0.130542
0.130446
0.130352
0.13026
0.13017
0.130082
0.129995
0.12991
0.129826
0.129743
0.12966
0.129578
0.129495
0.129412
0.129329
0.129244
0.129159
0.129073
0.128986
0.128898
0.128809
0.128719
0.128629
0.128538
0.128446
0.128355
0.128264
0.128174
0.128084
0.127996
0.127909
0.127824
0.127741
0.12766
0.12758
0.127503
0.127428
0.127356
0.127285
0.127216
0.127149
0.127083
0.127019
0.126956
0.126893
0.126831
0.126769
0.126707
0.126645
0.126582
0.126519
0.126455
0.126391
0.126325
0.126259
0.126192
0.126124
0.126056
0.125988
0.125919
0.125849
0.12578
0.125711
0.125642
0.125573
0.125505
0.125438
0.125371
0.125304
0.125238
0.125173
0.125108
0.125043
0.124979
0.124914
0.12485
0.124785
0.12472
0.124655
0.124589
0.124523
0.124456
0.124389
0.12432
0.124252
0.124183
0.124114
0.124045
0.123976
0.123907
0.123839
0.123772
0.123706
0.123641
0.123578
0.123516
0.123457
0.1234
0.123346
0.123294
0.123245
0.123198
0.123154
0.123113
0.123074
0.123038
0.123005
0.122973
0.122944
0.122917
0.122891
0.122868
0.122845
0.122825
0.122806
0.122788
0.122772
0.122756
0.122743
0.12273
0.122719
0.12271
0.122702
0.122696
0.122692
0.12269
0.12269
0.122692
0.122692
0.1
0.0999888
0.0999774
0.0999594
0.0999307
0.0998911
0.0998445
0.0997972
0.0997565
0.0997289
0.0997186
0.0997272
0.0997545
0.0997984
0.0998563
0.0999257
0.100004
0.10009
0.100181
0.100277
0.100375
0.100473
0.100571
0.100667
0.100759
0.100849
0.100936
0.10102
0.101104
0.101189
0.101276
0.101368
0.101465
0.101569
0.101683
0.101807
0.101944
0.102093
0.102256
0.102434
0.102626
0.102832
0.10305
0.103279
0.103518
0.103764
0.104016
0.104273
0.104533
0.104794
0.105057
0.10532
0.105585
0.105851
0.106119
0.10639
0.106664
0.106943
0.107228
0.10752
0.107821
0.108132
0.108454
0.108788
0.109134
0.109494
0.109866
0.110252
0.11065
0.11106
0.111481
0.111912
0.112352
0.112798
0.113251
0.113708
0.114169
0.114631
0.115095
0.115559
0.116024
0.116488
0.116951
0.117415
0.117877
0.11834
0.118803
0.119267
0.119733
0.1202
0.120669
0.121142
0.121616
0.122094
0.122575
0.123058
0.123543
0.124031
0.124519
0.125007
0.125495
0.12598
0.126463
0.126941
0.127413
0.127879
0.128336
0.128785
0.129223
0.12965
0.130065
0.130468
0.130858
0.131235
0.131599
0.13195
0.132288
0.132614
0.132929
0.133232
0.133525
0.133808
0.134082
0.134349
0.134607
0.134859
0.135105
0.135345
0.135579
0.13581
0.136035
0.136256
0.136473
0.136685
0.136892
0.137094
0.137291
0.137482
0.137667
0.137844
0.138015
0.138178
0.138333
0.138479
0.138616
0.138744
0.138864
0.138973
0.139074
0.139166
0.139249
0.139324
0.139391
0.13945
0.139503
0.139549
0.13959
0.139626
0.139658
0.139686
0.139711
0.139734
0.139754
0.139773
0.13979
0.139806
0.139822
0.139836
0.139849
0.139861
0.139871
0.13988
0.139887
0.139891
0.139892
0.13989
0.139884
0.139874
0.139858
0.139838
0.139812
0.139781
0.139744
0.1397
0.139651
0.139596
0.139534
0.139468
0.139396
0.139319
0.139237
0.139152
0.139063
0.138971
0.138876
0.13878
0.138682
0.138583
0.138484
0.138384
0.138284
0.138185
0.138086
0.137987
0.13789
0.137792
0.137695
0.137598
0.137501
0.137403
0.137305
0.137205
0.137104
0.137002
0.136897
0.13679
0.136681
0.136569
0.136454
0.136337
0.136217
0.136094
0.135969
0.135842
0.135713
0.135582
0.135451
0.135319
0.135187
0.135055
0.134924
0.134794
0.134665
0.134539
0.134415
0.134294
0.134175
0.134059
0.133946
0.133835
0.133728
0.133623
0.13352
0.13342
0.133321
0.133223
0.133126
0.13303
0.132934
0.132838
0.132741
0.132644
0.132546
0.132446
0.132345
0.132243
0.132139
0.132033
0.131927
0.131819
0.131711
0.131602
0.131493
0.131383
0.131275
0.131166
0.131059
0.130953
0.130849
0.130747
0.130646
0.130547
0.130451
0.130357
0.130265
0.130174
0.130086
0.129999
0.129914
0.12983
0.129746
0.129663
0.129581
0.129498
0.129415
0.129332
0.129247
0.129162
0.129076
0.12899
0.128902
0.128813
0.128723
0.128633
0.128542
0.128451
0.12836
0.128269
0.128179
0.12809
0.128002
0.127916
0.127831
0.127748
0.127667
0.127588
0.127511
0.127437
0.127364
0.127294
0.127225
0.127159
0.127093
0.127029
0.126966
0.126904
0.126842
0.12678
0.126718
0.126657
0.126594
0.126532
0.126468
0.126404
0.126339
0.126273
0.126207
0.126139
0.126072
0.126003
0.125935
0.125866
0.125797
0.125728
0.125659
0.125591
0.125523
0.125456
0.125389
0.125323
0.125257
0.125191
0.125126
0.125062
0.124997
0.124933
0.124869
0.124804
0.124739
0.124674
0.124608
0.124542
0.124475
0.124407
0.124339
0.124271
0.124202
0.124132
0.124063
0.123994
0.123925
0.123857
0.123789
0.123723
0.123658
0.123595
0.123533
0.123474
0.123417
0.123362
0.12331
0.12326
0.123213
0.123169
0.123127
0.123088
0.123052
0.123017
0.122986
0.122956
0.122928
0.122902
0.122878
0.122856
0.122835
0.122816
0.122797
0.122781
0.122765
0.122751
0.122739
0.122728
0.122718
0.12271
0.122704
0.1227
0.122697
0.122697
0.122699
0.122699
0.1
0.0999881
0.0999759
0.0999572
0.0999281
0.0998887
0.0998426
0.099796
0.099756
0.099729
0.099719
0.0997278
0.0997549
0.0997986
0.0998562
0.0999252
0.100003
0.100089
0.10018
0.100275
0.100372
0.10047
0.100567
0.100663
0.100755
0.100844
0.100931
0.101015
0.101099
0.101183
0.10127
0.101361
0.101458
0.101562
0.101676
0.1018
0.101936
0.102085
0.102248
0.102425
0.102616
0.102821
0.103038
0.103267
0.103504
0.10375
0.104001
0.104257
0.104515
0.104776
0.105038
0.105301
0.105565
0.105831
0.106098
0.106369
0.106643
0.106922
0.107207
0.1075
0.107801
0.108113
0.108436
0.10877
0.109117
0.109478
0.109852
0.110238
0.110638
0.111049
0.111471
0.111904
0.112344
0.112792
0.113246
0.113705
0.114166
0.11463
0.115096
0.115562
0.116028
0.116494
0.116959
0.117425
0.11789
0.118355
0.11882
0.119287
0.119755
0.120225
0.120697
0.121171
0.121649
0.122129
0.122612
0.123098
0.123585
0.124074
0.124565
0.125055
0.125544
0.126031
0.126514
0.126993
0.127466
0.127933
0.12839
0.128839
0.129278
0.129705
0.13012
0.130523
0.130913
0.13129
0.131655
0.132006
0.132344
0.132671
0.132986
0.133289
0.133582
0.133865
0.13414
0.134406
0.134665
0.134916
0.135162
0.135402
0.135637
0.135866
0.136092
0.136312
0.136528
0.13674
0.136946
0.137148
0.137343
0.137534
0.137717
0.137894
0.138064
0.138226
0.13838
0.138525
0.138661
0.138789
0.138907
0.139016
0.139117
0.139208
0.139291
0.139365
0.139432
0.139491
0.139543
0.139589
0.13963
0.139666
0.139697
0.139725
0.13975
0.139772
0.139792
0.139811
0.139828
0.139843
0.139858
0.139872
0.139884
0.139896
0.139906
0.139914
0.13992
0.139923
0.139924
0.139921
0.139914
0.139903
0.139887
0.139866
0.13984
0.139808
0.139771
0.139727
0.139678
0.139622
0.139561
0.139494
0.139422
0.139345
0.139264
0.139178
0.13909
0.138998
0.138903
0.138807
0.138709
0.13861
0.138511
0.138411
0.138311
0.138212
0.138113
0.138014
0.137916
0.137818
0.137721
0.137623
0.137526
0.137428
0.137329
0.137229
0.137128
0.137025
0.13692
0.136813
0.136703
0.136591
0.136476
0.136359
0.136238
0.136116
0.135991
0.135864
0.135735
0.135604
0.135473
0.135341
0.135208
0.135077
0.134945
0.134815
0.134687
0.134561
0.134436
0.134315
0.134196
0.134079
0.133966
0.133855
0.133747
0.133642
0.133539
0.133437
0.133338
0.13324
0.133142
0.133046
0.132949
0.132853
0.132756
0.132658
0.132559
0.132459
0.132358
0.132255
0.132151
0.132045
0.131938
0.131831
0.131722
0.131613
0.131503
0.131394
0.131285
0.131177
0.131069
0.130963
0.130859
0.130756
0.130655
0.130556
0.130459
0.130365
0.130272
0.130182
0.130093
0.130006
0.129921
0.129836
0.129752
0.129669
0.129587
0.129504
0.129421
0.129337
0.129253
0.129168
0.129082
0.128995
0.128908
0.128819
0.128729
0.128639
0.128549
0.128458
0.128368
0.128277
0.128188
0.128099
0.128011
0.127925
0.127841
0.127758
0.127678
0.127599
0.127523
0.127448
0.127376
0.127306
0.127238
0.127171
0.127106
0.127042
0.126979
0.126917
0.126856
0.126794
0.126733
0.126671
0.12661
0.126547
0.126484
0.12642
0.126356
0.12629
0.126224
0.126157
0.12609
0.126022
0.125954
0.125885
0.125817
0.125748
0.12568
0.125612
0.125544
0.125477
0.12541
0.125344
0.125278
0.125213
0.125148
0.125084
0.125019
0.124955
0.12489
0.124826
0.124761
0.124696
0.12463
0.124563
0.124496
0.124429
0.124361
0.124292
0.124223
0.124153
0.124084
0.124015
0.123946
0.123877
0.12381
0.123743
0.123678
0.123614
0.123553
0.123493
0.123435
0.12338
0.123328
0.123278
0.12323
0.123186
0.123143
0.123104
0.123067
0.123032
0.123
0.12297
0.122942
0.122915
0.122891
0.122868
0.122847
0.122827
0.122808
0.122791
0.122776
0.122761
0.122748
0.122737
0.122727
0.122719
0.122713
0.122708
0.122706
0.122706
0.122708
0.122708
0.1
0.0999873
0.0999741
0.0999545
0.0999251
0.0998858
0.0998403
0.0997946
0.0997555
0.0997291
0.0997195
0.0997284
0.0997555
0.0997989
0.0998561
0.0999246
0.100002
0.100087
0.100178
0.100272
0.100369
0.100466
0.100563
0.100658
0.10075
0.100838
0.100924
0.101008
0.101092
0.101176
0.101263
0.101353
0.10145
0.101554
0.101667
0.10179
0.101926
0.102074
0.102237
0.102413
0.102604
0.102808
0.103024
0.103251
0.103488
0.103732
0.103982
0.104237
0.104494
0.104754
0.105015
0.105277
0.10554
0.105805
0.106072
0.106343
0.106617
0.106896
0.107181
0.107475
0.107777
0.108089
0.108413
0.108748
0.109097
0.109459
0.109834
0.110222
0.110623
0.111035
0.111459
0.111893
0.112335
0.112785
0.11324
0.1137
0.114163
0.114629
0.115097
0.115565
0.116033
0.116501
0.116969
0.117437
0.117905
0.118373
0.118841
0.119311
0.119782
0.120255
0.12073
0.121208
0.121689
0.122172
0.122658
0.123146
0.123636
0.124128
0.12462
0.125113
0.125603
0.126092
0.126577
0.127057
0.127531
0.127998
0.128457
0.128906
0.129345
0.129772
0.130188
0.130591
0.130981
0.131359
0.131723
0.132074
0.132413
0.13274
0.133055
0.133359
0.133652
0.133935
0.13421
0.134476
0.134735
0.134987
0.135232
0.135472
0.135707
0.135936
0.136161
0.136381
0.136596
0.136807
0.137012
0.137213
0.137408
0.137597
0.137779
0.137955
0.138123
0.138284
0.138437
0.138581
0.138717
0.138843
0.138961
0.139069
0.139169
0.139259
0.139341
0.139415
0.139481
0.13954
0.139592
0.139638
0.139679
0.139714
0.139746
0.139773
0.139798
0.139819
0.139839
0.139857
0.139874
0.139889
0.139903
0.139916
0.139928
0.139938
0.139947
0.139955
0.13996
0.139962
0.139962
0.139958
0.139951
0.139939
0.139922
0.139901
0.139874
0.139842
0.139804
0.13976
0.13971
0.139654
0.139593
0.139526
0.139454
0.139377
0.139296
0.139211
0.139122
0.13903
0.138936
0.13884
0.138742
0.138643
0.138543
0.138444
0.138344
0.138244
0.138145
0.138046
0.137947
0.137849
0.137751
0.137653
0.137555
0.137457
0.137358
0.137257
0.137156
0.137052
0.136947
0.13684
0.13673
0.136617
0.136502
0.136385
0.136264
0.136142
0.136017
0.135889
0.13576
0.13563
0.135499
0.135367
0.135235
0.135103
0.134972
0.134841
0.134713
0.134586
0.134462
0.13434
0.134221
0.134104
0.13399
0.133879
0.133771
0.133665
0.133561
0.133459
0.133359
0.13326
0.133162
0.133065
0.132968
0.132871
0.132773
0.132675
0.132576
0.132475
0.132373
0.13227
0.132166
0.13206
0.131953
0.131845
0.131736
0.131627
0.131517
0.131408
0.131298
0.13119
0.131082
0.130976
0.130871
0.130768
0.130667
0.130568
0.130471
0.130376
0.130283
0.130192
0.130103
0.130016
0.12993
0.129845
0.129761
0.129678
0.129595
0.129512
0.129429
0.129345
0.129261
0.129176
0.12909
0.129004
0.128916
0.128828
0.128739
0.128649
0.128559
0.128468
0.128378
0.128288
0.128199
0.128111
0.128023
0.127938
0.127854
0.127771
0.127691
0.127613
0.127537
0.127463
0.127391
0.127321
0.127253
0.127187
0.127122
0.127058
0.126995
0.126934
0.126872
0.126811
0.12675
0.126689
0.126627
0.126565
0.126503
0.126439
0.126375
0.12631
0.126244
0.126178
0.126111
0.126043
0.125976
0.125907
0.125839
0.125771
0.125703
0.125635
0.125568
0.125501
0.125435
0.125369
0.125303
0.125238
0.125173
0.125109
0.125044
0.12498
0.124915
0.124851
0.124786
0.12472
0.124654
0.124588
0.124521
0.124453
0.124385
0.124316
0.124247
0.124177
0.124108
0.124038
0.123969
0.123901
0.123833
0.123766
0.123701
0.123637
0.123575
0.123515
0.123457
0.123401
0.123348
0.123298
0.12325
0.123205
0.123162
0.123122
0.123084
0.123049
0.123016
0.122986
0.122957
0.12293
0.122905
0.122882
0.12286
0.12284
0.122821
0.122803
0.122787
0.122773
0.122759
0.122748
0.122738
0.122729
0.122723
0.122718
0.122715
0.122715
0.122717
0.122717
0.1
0.0999863
0.0999719
0.0999514
0.0999215
0.0998824
0.0998377
0.099793
0.0997549
0.0997293
0.0997202
0.0997292
0.0997561
0.0997992
0.0998559
0.0999239
0.100001
0.100085
0.100175
0.100269
0.100365
0.100462
0.100558
0.100652
0.100743
0.100832
0.100917
0.101001
0.101084
0.101167
0.101254
0.101344
0.10144
0.101544
0.101656
0.101779
0.101914
0.102062
0.102224
0.102399
0.102589
0.102792
0.103007
0.103233
0.103469
0.103711
0.10396
0.104213
0.104469
0.104727
0.104987
0.105248
0.105511
0.105775
0.106042
0.106312
0.106586
0.106865
0.107151
0.107445
0.107748
0.108061
0.108385
0.108722
0.109072
0.109435
0.109812
0.110202
0.110605
0.111019
0.111445
0.11188
0.112324
0.112775
0.113233
0.113694
0.11416
0.114628
0.115097
0.115568
0.116039
0.11651
0.11698
0.117451
0.117922
0.118394
0.118866
0.119339
0.119814
0.120291
0.12077
0.121251
0.121736
0.122222
0.122712
0.123203
0.123697
0.124192
0.124686
0.125181
0.125674
0.126164
0.126651
0.127132
0.127608
0.128075
0.128535
0.128985
0.129424
0.129852
0.130268
0.130671
0.131062
0.131439
0.131804
0.132156
0.132495
0.132821
0.133137
0.133441
0.133734
0.134018
0.134293
0.134559
0.134818
0.13507
0.135315
0.135555
0.135789
0.136018
0.136242
0.136462
0.136676
0.136886
0.13709
0.13729
0.137483
0.137671
0.137852