# vtk DataFile Version 3.0
LBM Fluid Grid
ASCII
DATASET STRUCTURED_POINTS
DIMENSIONS 400 150 1
ORIGIN 0 0 0
SPACING 1 1 1
POINT_DATA 60000
SCALARS VelocityMagnitude double 1
LOOKUP_TABLE default
0.1
0.100018
0.100072
0.100154
0.10025
0.10035
0.100444
0.100527
0.100597
0.100651
0.100693
0.100723
0.100743
0.100756
0.100762
0.100764
0.100763
0.10076
0.10076
0.100764
0.100776
0.1008
0.100837
0.100891
0.100962
0.101051
0.101159
0.101285
0.101429
0.10159
0.101766
0.101955
0.102153
0.102357
0.102563
0.102767
0.102967
0.103162
0.10335
0.103531
0.103707
0.10388
0.10405
0.104222
0.104395
0.104574
0.104758
0.104951
0.105153
0.105366
0.105592
0.105831
0.106084
0.106351
0.106633
0.106928
0.107236
0.107555
0.107884
0.10822
0.108561
0.108906
0.109253
0.109601
0.109947
0.110293
0.110637
0.11098
0.111322
0.111663
0.112007
0.112352
0.112702
0.113058
0.113421
0.113793
0.114176
0.11457
0.114976
0.115394
0.115827
0.116272
0.11673
0.117201
0.117683
0.118174
0.118675
0.119182
0.119694
0.12021
0.120726
0.121242
0.121755
0.122264
0.122767
0.123264
0.123752
0.124233
0.124704
0.125167
0.125621
0.126066
0.126504
0.126934
0.127357
0.127775
0.128187
0.128595
0.128998
0.129398
0.129795
0.130189
0.13058
0.130969
0.131354
0.131735
0.132112
0.132485
0.132851
0.133211
0.133564
0.133908
0.134242
0.134566
0.134879
0.135179
0.135466
0.135739
0.135999
0.136244
0.136474
0.136691
0.136893
0.137082
0.137259
0.137423
0.137576
0.137719
0.137853
0.137979
0.138098
0.138212
0.13832
0.138425
0.138527
0.138627
0.138725
0.138822
0.138918
0.139014
0.139109
0.139203
0.139296
0.139388
0.139478
0.139565
0.139649
0.139729
0.139804
0.139874
0.139938
0.139995
0.140045
0.140087
0.140121
0.140147
0.140164
0.140174
0.140175
0.140169
0.140155
0.140135
0.140109
0.140078
0.140042
0.140003
0.139962
0.139919
0.139874
0.13983
0.139786
0.139743
0.139702
0.139663
0.139625
0.13959
0.139556
0.139525
0.139495
0.139466
0.139437
0.139409
0.139379
0.139348
0.139315
0.139278
0.139237
0.139192
0.139142
0.139085
0.139023
0.138953
0.138877
0.138794
0.138703
0.138606
0.138502
0.138391
0.138275
0.138154
0.138028
0.137898
0.137765
0.13763
0.137492
0.137354
0.137216
0.137078
0.13694
0.136804
0.13667
0.136537
0.136406
0.136278
0.136151
0.136026
0.135902
0.13578
0.135658
0.135537
0.135415
0.135292
0.135169
0.135043
0.134916
0.134786
0.134653
0.134518
0.134379
0.134237
0.134091
0.133943
0.133792
0.133638
0.133482
0.133325
0.133166
0.133006
0.132847
0.132687
0.132528
0.132371
0.132215
0.132061
0.13191
0.131761
0.131614
0.131469
0.131327
0.131187
0.131048
0.130911
0.130775
0.130639
0.130504
0.130367
0.130229
0.13009
0.129948
0.129804
0.129656
0.129506
0.129351
0.129193
0.129031
0.128865
0.128695
0.128522
0.128345
0.128165
0.127983
0.127798
0.127612
0.127424
0.127235
0.127046
0.126856
0.126667
0.126477
0.126288
0.1261
0.125913
0.125726
0.12554
0.125355
0.12517
0.124986
0.124802
0.124617
0.124433
0.124249
0.124064
0.123878
0.123692
0.123505
0.123318
0.123131
0.122943
0.122755
0.122568
0.122381
0.122195
0.122011
0.121828
0.121648
0.12147
0.121295
0.121122
0.120954
0.120788
0.120627
0.120468
0.120314
0.120163
0.120015
0.11987
0.119727
0.119587
0.119448
0.119311
0.119175
0.11904
0.118905
0.11877
0.118634
0.118498
0.118362
0.118224
0.118086
0.117947
0.117807
0.117667
0.117526
0.117386
0.117246
0.117106
0.116968
0.11683
0.116694
0.116559
0.116426
0.116295
0.116166
0.116039
0.115914
0.11579
0.115669
0.11555
0.115432
0.115316
0.115201
0.115088
0.114977
0.114867
0.114758
0.114651
0.114546
0.114443
0.114341
0.114242
0.114146
0.114052
0.113961
0.113873
0.113789
0.113708
0.113631
0.113558
0.113489
0.113424
0.113364
0.113307
0.113254
0.113206
0.113161
0.113121
0.113084
0.11305
0.11302
0.112994
0.112971
0.112951
0.112935
0.112922
0.112912
0.112905
0.112902
0.112903
0.112907
0.112907
0.1
0.100018
0.100072
0.100154
0.10025
0.10035
0.100445
0.100528
0.100597
0.100652
0.100693
0.100723
0.100744
0.100756
0.100763
0.100764
0.100763
0.10076
0.10076
0.100764
0.100776
0.1008
0.100837
0.100891
0.100962
0.101051
0.101159
0.101285
0.101429
0.10159
0.101767
0.101955
0.102154
0.102358
0.102564
0.102768
0.102969
0.103164
0.103352
0.103533
0.103709
0.103882
0.104053
0.104224
0.104398
0.104576
0.104761
0.104954
0.105156
0.105369
0.105595
0.105834
0.106087
0.106354
0.106636
0.106931
0.107239
0.107558
0.107886
0.108222
0.108564
0.108909
0.109256
0.109603
0.10995
0.110296
0.11064
0.110982
0.111324
0.111666
0.112009
0.112354
0.112704
0.113059
0.113422
0.113794
0.114176
0.11457
0.114975
0.115394
0.115826
0.116271
0.116729
0.117199
0.11768
0.118172
0.118672
0.119179
0.119691
0.120206
0.120722
0.121238
0.121751
0.12226
0.122763
0.123259
0.123748
0.124228
0.124699
0.125162
0.125616
0.126061
0.126498
0.126928
0.127352
0.127769
0.128181
0.128588
0.128992
0.129392
0.129789
0.130183
0.130574
0.130962
0.131347
0.131728
0.132105
0.132478
0.132844
0.133205
0.133557
0.133901
0.134236
0.13456
0.134872
0.135172
0.135459
0.135733
0.135992
0.136238
0.136468
0.136685
0.136887
0.137077
0.137253
0.137417
0.13757
0.137713
0.137847
0.137973
0.138093
0.138206
0.138315
0.138419
0.138521
0.138621
0.138719
0.138816
0.138913
0.139008
0.139103
0.139198
0.139291
0.139383
0.139472
0.13956
0.139644
0.139724
0.139799
0.139869
0.139933
0.13999
0.14004
0.140083
0.140117
0.140143
0.14016
0.14017
0.140171
0.140165
0.140151
0.140131
0.140105
0.140074
0.140039
0.14
0.139958
0.139915
0.139871
0.139827
0.139783
0.13974
0.139699
0.139659
0.139622
0.139587
0.139553
0.139522
0.139492
0.139463
0.139435
0.139406
0.139377
0.139346
0.139312
0.139276
0.139235
0.13919
0.13914
0.139084
0.139021
0.138952
0.138876
0.138792
0.138702
0.138604
0.1385
0.13839
0.138274
0.138153
0.138027
0.137897
0.137764
0.137628
0.137491
0.137353
0.137214
0.137076
0.136939
0.136803
0.136668
0.136536
0.136405
0.136276
0.136149
0.136024
0.135901
0.135778
0.135657
0.135535
0.135413
0.135291
0.135167
0.135042
0.134914
0.134784
0.134652
0.134516
0.134377
0.134235
0.134089
0.133941
0.13379
0.133636
0.13348
0.133322
0.133163
0.133004
0.132844
0.132684
0.132526
0.132368
0.132212
0.132058
0.131907
0.131757
0.13161
0.131466
0.131324
0.131183
0.131045
0.130908
0.130772
0.130636
0.1305
0.130363
0.130226
0.130086
0.129945
0.1298
0.129653
0.129502
0.129347
0.129189
0.129027
0.128861
0.128691
0.128518
0.128341
0.128161
0.127979
0.127795
0.127608
0.12742
0.127232
0.127042
0.126852
0.126663
0.126473
0.126285
0.126097
0.125909
0.125723
0.125537
0.125352
0.125167
0.124983
0.124799
0.124615
0.12443
0.124246
0.124061
0.123876
0.12369
0.123503
0.123316
0.123129
0.122941
0.122753
0.122566
0.122379
0.122194
0.122009
0.121827
0.121646
0.121468
0.121293
0.121121
0.120952
0.120787
0.120626
0.120468
0.120313
0.120162
0.120014
0.119869
0.119727
0.119586
0.119448
0.119311
0.119175
0.11904
0.118905
0.11877
0.118635
0.118499
0.118362
0.118224
0.118086
0.117947
0.117808
0.117667
0.117527
0.117387
0.117247
0.117107
0.116968
0.116831
0.116694
0.11656
0.116427
0.116296
0.116167
0.11604
0.115914
0.115791
0.11567
0.11555
0.115433
0.115317
0.115202
0.115089
0.114978
0.114868
0.114759
0.114652
0.114547
0.114444
0.114342
0.114243
0.114147
0.114053
0.113962
0.113874
0.11379
0.113709
0.113632
0.113559
0.11349
0.113425
0.113364
0.113308
0.113255
0.113207
0.113162
0.113121
0.113084
0.113051
0.113021
0.112995
0.112972
0.112952
0.112936
0.112922
0.112913
0.112906
0.112903
0.112904
0.112908
0.112908
0.1
0.100018
0.100072
0.100154
0.10025
0.10035
0.100444
0.100527
0.100597
0.100651
0.100693
0.100723
0.100743
0.100756
0.100762
0.100764
0.100763
0.10076
0.10076
0.100764
0.100776
0.1008
0.100837
0.100891
0.100962
0.101051
0.101159
0.101285
0.101429
0.10159
0.101766
0.101955
0.102153
0.102357
0.102563
0.102767
0.102968
0.103162
0.10335
0.103531
0.103707
0.10388
0.10405
0.104222
0.104395
0.104574
0.104758
0.104951
0.105153
0.105366
0.105592
0.105831
0.106084
0.106351
0.106633
0.106928
0.107236
0.107555
0.107884
0.10822
0.108561
0.108906
0.109253
0.109601
0.109947
0.110293
0.110637
0.11098
0.111322
0.111663
0.112007
0.112352
0.112702
0.113058
0.113421
0.113793
0.114176
0.11457
0.114976
0.115395
0.115827
0.116272
0.11673
0.117201
0.117683
0.118174
0.118675
0.119182
0.119694
0.12021
0.120726
0.121242
0.121755
0.122264
0.122767
0.123264
0.123752
0.124233
0.124704
0.125167
0.125621
0.126066
0.126504
0.126934
0.127357
0.127775
0.128187
0.128595
0.128998
0.129398
0.129795
0.130189
0.13058
0.130969
0.131354
0.131735
0.132112
0.132485
0.132851
0.133211
0.133564
0.133908
0.134242
0.134566
0.134879
0.135179
0.135466
0.135739
0.135998
0.136243
0.136474
0.136691
0.136893
0.137082
0.137258
0.137423
0.137576
0.137719
0.137853
0.137979
0.138098
0.138211
0.13832
0.138425
0.138527
0.138626
0.138725
0.138822
0.138918
0.139013
0.139108
0.139202
0.139296
0.139387
0.139477
0.139564
0.139648
0.139728
0.139803
0.139873
0.139937
0.139994
0.140044
0.140086
0.14012
0.140146
0.140164
0.140173
0.140174
0.140168
0.140155
0.140134
0.140109
0.140077
0.140042
0.140003
0.139962
0.139918
0.139874
0.13983
0.139786
0.139743
0.139702
0.139663
0.139625
0.13959
0.139557
0.139525
0.139495
0.139467
0.139438
0.13941
0.13938
0.139349
0.139316
0.139279
0.139239
0.139194
0.139143
0.139087
0.139024
0.138955
0.138879
0.138795
0.138705
0.138608
0.138504
0.138393
0.138277
0.138156
0.13803
0.1379
0.137767
0.137632
0.137495
0.137357
0.137218
0.13708
0.136943
0.136807
0.136672
0.136539
0.136409
0.13628
0.136153
0.136028
0.135905
0.135782
0.13566
0.135539
0.135417
0.135294
0.135171
0.135045
0.134918
0.134788
0.134655
0.134519
0.13438
0.134238
0.134092
0.133944
0.133793
0.133639
0.133483
0.133325
0.133166
0.133006
0.132847
0.132687
0.132528
0.132371
0.132215
0.132061
0.131909
0.131759
0.131612
0.131468
0.131325
0.131185
0.131047
0.130909
0.130773
0.130637
0.130501
0.130365
0.130227
0.130087
0.129945
0.129801
0.129653
0.129502
0.129348
0.12919
0.129027
0.128861
0.128691
0.128518
0.128341
0.128162
0.127979
0.127795
0.127608
0.127421
0.127232
0.127042
0.126853
0.126663
0.126474
0.126285
0.126097
0.125909
0.125723
0.125537
0.125352
0.125167
0.124983
0.124799
0.124615
0.124431
0.124246
0.124061
0.123876
0.12369
0.123503
0.123316
0.123129
0.122941
0.122754
0.122566
0.12238
0.122194
0.12201
0.121827
0.121647
0.121469
0.121294
0.121122
0.120953
0.120788
0.120627
0.120469
0.120314
0.120163
0.120015
0.11987
0.119728
0.119588
0.119449
0.119313
0.119177
0.119042
0.118907
0.118772
0.118636
0.1185
0.118364
0.118226
0.118088
0.117949
0.117809
0.117669
0.117529
0.117388
0.117248
0.117109
0.11697
0.116833
0.116696
0.116562
0.116429
0.116298
0.116169
0.116041
0.115916
0.115793
0.115672
0.115552
0.115435
0.115318
0.115204
0.115091
0.114979
0.114869
0.114761
0.114654
0.114549
0.114445
0.114344
0.114245
0.114148
0.114054
0.113963
0.113875
0.113791
0.11371
0.113633
0.11356
0.113491
0.113426
0.113366
0.113309
0.113256
0.113208
0.113163
0.113123
0.113086
0.113052
0.113022
0.112996
0.112973
0.112953
0.112936
0.112923
0.112913
0.112907
0.112904
0.112905
0.112909
0.112909
0.1
0.100018
0.100072
0.100154
0.10025
0.100349
0.100443
0.100526
0.100595
0.10065
0.100691
0.100722
0.100742
0.100755
0.100762
0.100764
0.100762
0.10076
0.100759
0.100764
0.100776
0.1008
0.100837
0.100891
0.100962
0.101051
0.101159
0.101285
0.101429
0.101589
0.101765
0.101953
0.102151
0.102354
0.102559
0.102763
0.102963
0.103157
0.103345
0.103526
0.103701
0.103873
0.104044
0.104215
0.104388
0.104566
0.104751
0.104943
0.105145
0.105359
0.105584
0.105823
0.106076
0.106343
0.106625
0.10692
0.107228
0.107547
0.107875
0.108211
0.108553
0.108898
0.109245
0.109592
0.109939
0.110285
0.110629
0.110972
0.111315
0.111657
0.112001
0.112347
0.112698
0.113054
0.113418
0.113791
0.114175
0.114569
0.114976
0.115396
0.11583
0.116276
0.116735
0.117207
0.117689
0.118182
0.118683
0.119191
0.119704
0.12022
0.120737
0.121253
0.121767
0.122276
0.12278
0.123277
0.123766
0.124247
0.124719
0.125182
0.125636
0.126082
0.12652
0.126951
0.127375
0.127793
0.128206
0.128614
0.129018
0.129418
0.129815
0.13021
0.130601
0.130989
0.131375
0.131756
0.132133
0.132506
0.132872
0.133232
0.133584
0.133928
0.134262
0.134586
0.134898
0.135198
0.135484
0.135757
0.136016
0.136261
0.136492
0.136708
0.13691
0.137099
0.137275
0.13744
0.137593
0.137736
0.13787
0.137996
0.138115
0.138228
0.138337
0.138441
0.138543
0.138643
0.138741
0.138838
0.138934
0.139029
0.139124
0.139218
0.139311
0.139402
0.139491
0.139578
0.139662
0.139741
0.139816
0.139886
0.139949
0.140006
0.140056
0.140098
0.140132
0.140157
0.140175
0.140184
0.140185
0.140179
0.140165
0.140145
0.140119
0.140088
0.140052
0.140013
0.139972
0.139929
0.139885
0.13984
0.139797
0.139754
0.139712
0.139673
0.139636
0.1396
0.139567
0.139535
0.139505
0.139476
0.139447
0.139419
0.139389
0.139358
0.139324
0.139287
0.139247
0.139202
0.139151
0.139095
0.139032
0.138963
0.138886
0.138803
0.138713
0.138615
0.138512
0.138401
0.138285
0.138164
0.138038
0.137909
0.137776
0.137641
0.137504
0.137365
0.137227
0.137089
0.136952
0.136816
0.136681
0.136549
0.136418
0.136289
0.136162
0.136037
0.135913
0.135791
0.135669
0.135547
0.135425
0.135303
0.135179
0.135053
0.134926
0.134796
0.134663
0.134527
0.134388
0.134246
0.1341
0.133952
0.133801
0.133647
0.133491
0.133333
0.133174
0.133015
0.132855
0.132695
0.132536
0.132379
0.132223
0.132069
0.131917
0.131767
0.13162
0.131475
0.131333
0.131192
0.131053
0.130916
0.130779
0.130643
0.130507
0.13037
0.130232
0.130093
0.129951
0.129806
0.129658
0.129507
0.129353
0.129194
0.129032
0.128866
0.128696
0.128523
0.128346
0.128166
0.127984
0.127799
0.127613
0.127425
0.127236
0.127046
0.126857
0.126667
0.126478
0.126289
0.126101
0.125913
0.125726
0.12554
0.125355
0.12517
0.124986
0.124802
0.124618
0.124434
0.124249
0.124064
0.123879
0.123693
0.123506
0.123319
0.123132
0.122944
0.122757
0.122569
0.122383
0.122197
0.122013
0.12183
0.12165
0.121472
0.121297
0.121125
0.120957
0.120791
0.12063
0.120472
0.120317
0.120166
0.120018
0.119873
0.119731
0.119591
0.119452
0.119315
0.11918
0.119044
0.118909
0.118774
0.118639
0.118503
0.118366
0.118229
0.118091
0.117952
0.117812
0.117672
0.117532
0.117391
0.117251
0.117112
0.116973
0.116836
0.116699
0.116565
0.116432
0.116301
0.116172
0.116044
0.115919
0.115796
0.115675
0.115555
0.115437
0.115321
0.115207
0.115094
0.114982
0.114872
0.114763
0.114656
0.114551
0.114448
0.114346
0.114247
0.114151
0.114057
0.113966
0.113878
0.113793
0.113713
0.113635
0.113562
0.113493
0.113428
0.113368
0.113311
0.113258
0.11321
0.113165
0.113124
0.113087
0.113053
0.113024
0.112997
0.112974
0.112954
0.112937
0.112924
0.112914
0.112908
0.112905
0.112905
0.112909
0.112909
0.1
0.100018
0.100072
0.100153
0.100249
0.100348
0.100441
0.100524
0.100593
0.100647
0.100689
0.100719
0.10074
0.100754
0.100761
0.100763
0.100762
0.10076
0.100759
0.100764
0.100776
0.1008
0.100837
0.100891
0.100962
0.101051
0.101158
0.101284
0.101428
0.101588
0.101763
0.101951
0.102148
0.10235
0.102554
0.102757
0.102956
0.10315
0.103336
0.103517
0.103692
0.103863
0.104033
0.104204
0.104377
0.104554
0.104738
0.104931
0.105132
0.105345
0.105571
0.105809
0.106062
0.10633
0.106611
0.106906
0.107214
0.107533
0.107861
0.108197
0.108539
0.108884
0.109231
0.109578
0.109925
0.110272
0.110616
0.11096
0.111303
0.111646
0.111991
0.112338
0.11269
0.113048
0.113413
0.113788
0.114173
0.114569
0.114978
0.1154
0.115834
0.116282
0.116743
0.117216
0.1177
0.118194
0.118697
0.119206
0.11972
0.120237
0.120755
0.121272
0.121786
0.122297
0.122801
0.123299
0.123789
0.12427
0.124743
0.125207
0.125662
0.126109
0.126548
0.126979
0.127404
0.127823
0.128236
0.128645
0.12905
0.129451
0.129849
0.130244
0.130635
0.131024
0.131409
0.131791
0.132168
0.13254
0.132907
0.133267
0.133619
0.133962
0.134296
0.134619
0.13493
0.135229
0.135516
0.135788
0.136047
0.136291
0.136521
0.136737
0.136939
0.137128
0.137304
0.137468
0.137621
0.137764
0.137898
0.138024
0.138143
0.138256
0.138365
0.138469
0.138571
0.13867
0.138768
0.138865
0.138961
0.139056
0.13915
0.139244
0.139336
0.139427
0.139516
0.139602
0.139685
0.139764
0.139838
0.139907
0.13997
0.140026
0.140075
0.140117
0.14015
0.140176
0.140193
0.140202
0.140203
0.140196
0.140182
0.140162
0.140136
0.140105
0.14007
0.140031
0.139989
0.139946
0.139902
0.139858
0.139814
0.139771
0.13973
0.13969
0.139652
0.139617
0.139583
0.139551
0.139521
0.139492
0.139463
0.139434
0.139404
0.139372
0.139338
0.139301
0.13926
0.139215
0.139164
0.139107
0.139044
0.138975
0.138899
0.138815
0.138725
0.138628
0.138524
0.138414
0.138298
0.138177
0.138051
0.137922
0.137789
0.137654
0.137517
0.137379
0.137241
0.137103
0.136966
0.13683
0.136695
0.136563
0.136432
0.136303
0.136176
0.136051
0.135927
0.135804
0.135682
0.135561
0.135439
0.135316
0.135192
0.135067
0.134939
0.134809
0.134676
0.13454
0.134401
0.134259
0.134114
0.133965
0.133814
0.13366
0.133504
0.133347
0.133188
0.133028
0.132868
0.132709
0.13255
0.132392
0.132236
0.132082
0.13193
0.13178
0.131633
0.131488
0.131345
0.131204
0.131065
0.130928
0.130791
0.130654
0.130518
0.130381
0.130243
0.130103
0.12996
0.129816
0.129668
0.129517
0.129362
0.129203
0.129041
0.128875
0.128705
0.128531
0.128354
0.128175
0.127992
0.127808
0.127621
0.127433
0.127244
0.127055
0.126865
0.126675
0.126485
0.126296
0.126108
0.12592
0.125734
0.125547
0.125362
0.125177
0.124993
0.124808
0.124624
0.12444
0.124255
0.12407
0.123884
0.123698
0.123512
0.123325
0.123137
0.12295
0.122762
0.122575
0.122388
0.122203
0.122018
0.121836
0.121656
0.121478
0.121303
0.121131
0.120962
0.120797
0.120635
0.120477
0.120322
0.120171
0.120023
0.119878
0.119736
0.119595
0.119457
0.11932
0.119184
0.119049
0.118914
0.118779
0.118643
0.118507
0.118371
0.118233
0.118095
0.117956
0.117816
0.117676
0.117536
0.117396
0.117256
0.117116
0.116977
0.11684
0.116704
0.116569
0.116436
0.116305
0.116176
0.116048
0.115923
0.1158
0.115678
0.115559
0.115441
0.115325
0.11521
0.115097
0.114986
0.114875
0.114767
0.11466
0.114555
0.114451
0.11435
0.11425
0.114154
0.11406
0.113969
0.113881
0.113796
0.113715
0.113638
0.113565
0.113496
0.113431
0.11337
0.113313
0.11326
0.113212
0.113167
0.113126
0.113089
0.113055
0.113025
0.112998
0.112975
0.112955
0.112939
0.112925
0.112915
0.112909
0.112906
0.112906
0.11291
0.11291
0.1
0.100018
0.100072
0.100153
0.100248
0.100346
0.100439
0.100521
0.100589
0.100644
0.100686
0.100716
0.100738
0.100752
0.100759
0.100762
0.100761
0.100759
0.100759
0.100763
0.100776
0.1008
0.100837
0.100891
0.100962
0.101051
0.101158
0.101283
0.101427
0.101586
0.101761
0.101947
0.102143
0.102344
0.102547
0.102749
0.102947
0.103139
0.103324
0.103504
0.103678
0.103849
0.104018
0.104188
0.10436
0.104537
0.104721
0.104913
0.105114
0.105327
0.105552
0.10579
0.106043
0.10631
0.106592
0.106887
0.107195
0.107514
0.107842
0.108178
0.108519
0.108864
0.109211
0.109559
0.109906
0.110253
0.110598
0.110942
0.111286
0.111631
0.111977
0.112326
0.112679
0.113039
0.113406
0.113783
0.11417
0.114569
0.11498
0.115404
0.115841
0.116291
0.116754
0.11723
0.117716
0.118212
0.118716
0.119227
0.119742
0.120261
0.12078
0.121298
0.121814
0.122325
0.122831
0.123329
0.12382
0.124303
0.124777
0.125242
0.125698
0.126146
0.126586
0.127019
0.127445
0.127865
0.12828
0.128689
0.129095
0.129497
0.129896
0.130291
0.130684
0.131073
0.131458
0.13184
0.132217
0.132589
0.132955
0.133315
0.133666
0.134009
0.134342
0.134665
0.134975
0.135274
0.135559
0.135831
0.136089
0.136333
0.136562
0.136778
0.13698
0.137168
0.137344
0.137508
0.13766
0.137803
0.137937
0.138063
0.138182
0.138295
0.138404
0.138508
0.13861
0.138709
0.138807
0.138903
0.138998
0.139093
0.139187
0.13928
0.139371
0.139462
0.13955
0.139635
0.139717
0.139795
0.139869
0.139937
0.139999
0.140055
0.140103
0.140144
0.140177
0.140202
0.140218
0.140227
0.140228
0.140221
0.140207
0.140187
0.140161
0.140129
0.140094
0.140055
0.140014
0.139971
0.139927
0.139882
0.139838
0.139795
0.139754
0.139714
0.139676
0.13964
0.139606
0.139574
0.139543
0.139513
0.139484
0.139454
0.139424
0.139392
0.139357
0.13932
0.139278
0.139232
0.139181
0.139124
0.139061
0.138992
0.138915
0.138832
0.138742
0.138644
0.138541
0.138431
0.138315
0.138194
0.138069
0.13794
0.137807
0.137672
0.137536
0.137398
0.13726
0.137122
0.136985
0.136849
0.136715
0.136582
0.136451
0.136323
0.136195
0.13607
0.135946
0.135823
0.135701
0.135579
0.135457
0.135334
0.13521
0.135084
0.134957
0.134827
0.134694
0.134558
0.134419
0.134277
0.134131
0.133983
0.133832
0.133679
0.133523
0.133365
0.133207
0.133047
0.132887
0.132728
0.132569
0.132411
0.132255
0.132101
0.131949
0.131799
0.131651
0.131506
0.131363
0.131222
0.131082
0.130944
0.130807
0.13067
0.130534
0.130396
0.130257
0.130117
0.129975
0.12983
0.129681
0.12953
0.129375
0.129216
0.129054
0.128887
0.128717
0.128544
0.128367
0.128187
0.128005
0.12782
0.127633
0.127445
0.127256
0.127067
0.126877
0.126687
0.126497
0.126308
0.126119
0.125931
0.125744
0.125558
0.125372
0.125187
0.125002
0.124818
0.124633
0.124449
0.124264
0.124079
0.123893
0.123707
0.12352
0.123333
0.123145
0.122958
0.12277
0.122583
0.122396
0.12221
0.122026
0.121844
0.121663
0.121485
0.12131
0.121138
0.120969
0.120804
0.120642
0.120484
0.120329
0.120178
0.12003
0.119885
0.119742
0.119601
0.119463
0.119326
0.11919
0.119054
0.118919
0.118784
0.118649
0.118513
0.118376
0.118238
0.1181
0.117961
0.117822
0.117682
0.117541
0.117401
0.117261
0.117121
0.116983
0.116845
0.116709
0.116574
0.116441
0.11631
0.116181
0.116053
0.115928
0.115805
0.115683
0.115563
0.115446
0.115329
0.115215
0.115101
0.11499
0.11488
0.114771
0.114664
0.114559
0.114455
0.114354
0.114254
0.114158
0.114064
0.113972
0.113884
0.1138
0.113719
0.113642
0.113568
0.113499
0.113434
0.113373
0.113316
0.113263
0.113214
0.113169
0.113128
0.113091
0.113057
0.113027
0.113
0.112977
0.112956
0.11294
0.112926
0.112916
0.11291
0.112906
0.112907
0.11291
0.11291
0.1
0.100018
0.100072
0.100152
0.100246
0.100343
0.100436
0.100517
0.100585
0.10064
0.100681
0.100713
0.100735
0.100749
0.100757
0.10076
0.10076
0.100758
0.100758
0.100763
0.100776
0.1008
0.100837
0.100891
0.100962
0.101051
0.101158
0.101283
0.101425
0.101584
0.101757
0.101943
0.102137
0.102336
0.102538
0.102738
0.102934
0.103125
0.103309
0.103487
0.10366
0.10383
0.103998
0.104168
0.104339
0.104516
0.104699
0.10489
0.105091
0.105303
0.105528
0.105766
0.106019
0.106286
0.106567
0.106862
0.10717
0.107489
0.107817
0.108152
0.108493
0.108838
0.109186
0.109534
0.109881
0.110228
0.110575
0.11092
0.111265
0.111611
0.111958
0.112309
0.112665
0.113027
0.113397
0.113777
0.114167
0.114568
0.114982
0.115409
0.11585
0.116303
0.116769
0.117247
0.117736
0.118234
0.118741
0.119254
0.119771
0.120291
0.120812
0.121332
0.121849
0.122362
0.122869
0.123369
0.123861
0.124345
0.12482
0.125287
0.125745
0.126194
0.126636
0.12707
0.127498
0.127919
0.128335
0.128746
0.129153
0.129556
0.129956
0.130352
0.130745
0.131135
0.131521
0.131903
0.13228
0.132652
0.133018
0.133377
0.133728
0.13407
0.134402
0.134723
0.135033
0.135331
0.135615
0.135886
0.136144
0.136386
0.136615
0.13683
0.137031
0.137219
0.137395
0.137558
0.137711
0.137854
0.137988
0.138113
0.138232
0.138346
0.138454
0.138558
0.13866
0.138759
0.138856
0.138952
0.139047
0.139141
0.139234
0.139326
0.139417
0.139506
0.139593
0.139678
0.139759
0.139836
0.139908
0.139976
0.140037
0.140091
0.140139
0.140179
0.140211
0.140235
0.140251
0.140259
0.14026
0.140253
0.140239
0.140218
0.140192
0.140161
0.140125
0.140087
0.140045
0.140002
0.139958
0.139914
0.139869
0.139826
0.139785
0.139744
0.139706
0.13967
0.139636
0.139603
0.139571
0.139541
0.139511
0.139481
0.139449
0.139417
0.139382
0.139344
0.139302
0.139255
0.139204
0.139146
0.139083
0.139013
0.138936
0.138853
0.138763
0.138666
0.138562
0.138452
0.138337
0.138216
0.138091
0.137962
0.13783
0.137696
0.137559
0.137422
0.137284
0.137147
0.13701
0.136874
0.136739
0.136607
0.136476
0.136347
0.13622
0.136094
0.13597
0.135847
0.135725
0.135602
0.13548
0.135357
0.135233
0.135107
0.134979
0.134849
0.134716
0.13458
0.134442
0.134299
0.134154
0.134006
0.133855
0.133702
0.133547
0.133389
0.133231
0.133071
0.132912
0.132752
0.132594
0.132436
0.13228
0.132125
0.131973
0.131823
0.131675
0.131529
0.131386
0.131244
0.131105
0.130966
0.130828
0.130691
0.130554
0.130416
0.130277
0.130136
0.129993
0.129848
0.129699
0.129548
0.129392
0.129234
0.129071
0.128904
0.128734
0.128561
0.128384
0.128204
0.128021
0.127836
0.12765
0.127462
0.127273
0.127083
0.126892
0.126702
0.126512
0.126323
0.126134
0.125946
0.125758
0.125572
0.125386
0.1252
0.125015
0.12483
0.124645
0.12446
0.124275
0.12409
0.123904
0.123718
0.123531
0.123343
0.123156
0.122968
0.12278
0.122593
0.122406
0.122221
0.122036
0.121854
0.121673
0.121495
0.12132
0.121148
0.120979
0.120813
0.120651
0.120493
0.120338
0.120187
0.120038
0.119893
0.11975
0.119609
0.11947
0.119333
0.119197
0.119061
0.118926
0.118791
0.118655
0.118519
0.118382
0.118245
0.118107
0.117968
0.117828
0.117688
0.117548
0.117407
0.117267
0.117128
0.116989
0.116851
0.116715
0.11658
0.116447
0.116316
0.116187
0.116059
0.115934
0.11581
0.115689
0.115569
0.115451
0.115335
0.11522
0.115107
0.114995
0.114885
0.114776
0.114669
0.114563
0.11446
0.114358
0.114259
0.114162
0.114068
0.113977
0.113889
0.113804
0.113723
0.113646
0.113572
0.113503
0.113438
0.113376
0.113319
0.113266
0.113217
0.113172
0.113131
0.113093
0.113059
0.113029
0.113002
0.112978
0.112958
0.112941
0.112927
0.112917
0.11291
0.112907
0.112907
0.112911
0.112911
0.1
0.100018
0.100071
0.100151
0.100244
0.10034
0.100432
0.100512
0.10058
0.100634
0.100676
0.100708
0.100731
0.100746
0.100754
0.100758
0.100758
0.100757
0.100757
0.100762
0.100775
0.100799
0.100837
0.100891
0.100962
0.10105
0.101157
0.101281
0.101423
0.101581
0.101753
0.101937
0.102129
0.102327
0.102527
0.102725
0.102919
0.103108
0.10329
0.103467
0.103639
0.103807
0.103975
0.104143
0.104314
0.104489
0.104671
0.104862
0.105062
0.105274
0.105498
0.105736
0.105989
0.106256
0.106537
0.106832
0.107139
0.107458
0.107786
0.108121
0.108462
0.108807
0.109155
0.109503
0.109851
0.110199
0.110546
0.110892
0.111239
0.111586
0.111936
0.11229
0.112648
0.113013
0.113386
0.113769
0.114162
0.114567
0.114985
0.115416
0.11586
0.116317
0.116786
0.117268
0.11776
0.118261
0.118771
0.119286
0.119806
0.120329
0.120852
0.121373
0.121892
0.122407
0.122915
0.123417
0.123911
0.124396
0.124873
0.125342
0.125801
0.126253
0.126696
0.127132
0.127562
0.127985
0.128403
0.128816
0.129224
0.129629
0.13003
0.130427
0.130821
0.131211
0.131598
0.13198
0.132357
0.132729
0.133094
0.133452
0.133803
0.134144
0.134475
0.134795
0.135104
0.135401
0.135684
0.135954
0.13621
0.136452
0.13668
0.136894
0.137095
0.137282
0.137457
0.13762
0.137773
0.137916
0.138049
0.138175
0.138294
0.138407
0.138515
0.13862
0.138721
0.13882
0.138916
0.139012
0.139106
0.139199
0.139292
0.139383
0.139473
0.139561
0.139647
0.13973
0.13981
0.139886
0.139957
0.140023
0.140082
0.140136
0.140182
0.140221
0.140252
0.140276
0.140291
0.140299
0.140299
0.140291
0.140277
0.140256
0.14023
0.140199
0.140164
0.140125
0.140083
0.14004
0.139996
0.139952
0.139907
0.139864
0.139822
0.139782
0.139743
0.139706
0.139671
0.139638
0.139606
0.139575
0.139544
0.139513
0.139481
0.139447
0.139411
0.139373
0.13933
0.139283
0.139231
0.139173
0.139109
0.139039
0.138962
0.138879
0.138788
0.138691
0.138588
0.138478
0.138363
0.138243
0.138118
0.13799
0.137858
0.137724
0.137588
0.137451
0.137313
0.137176
0.137039
0.136903
0.136769
0.136636
0.136506
0.136376
0.136249
0.136123
0.135999
0.135876
0.135753
0.135631
0.135508
0.135385
0.13526
0.135135
0.135007
0.134876
0.134743
0.134608
0.134469
0.134327
0.134182
0.134034
0.133884
0.133731
0.133575
0.133418
0.13326
0.133101
0.132942
0.132782
0.132624
0.132466
0.13231
0.132155
0.132003
0.131852
0.131704
0.131558
0.131414
0.131272
0.131132
0.130993
0.130855
0.130717
0.130579
0.13044
0.130301
0.13016
0.130016
0.12987
0.129722
0.12957
0.129414
0.129255
0.129092
0.128925
0.128755
0.128581
0.128404
0.128224
0.128042
0.127857
0.12767
0.127482
0.127293
0.127103
0.126912
0.126722
0.126531
0.126342
0.126152
0.125964
0.125776
0.125589
0.125402
0.125216
0.125031
0.124846
0.12466
0.124475
0.12429
0.124104
0.123918
0.123731
0.123544
0.123357
0.123169
0.122981
0.122793
0.122606
0.122419
0.122233
0.122049
0.121866
0.121686
0.121507
0.121332
0.12116
0.120991
0.120825
0.120663
0.120504
0.120349
0.120197
0.120048
0.119903
0.119759
0.119619
0.11948
0.119342
0.119205
0.11907
0.118934
0.118799
0.118663
0.118527
0.11839
0.118253
0.118114
0.117975
0.117836
0.117696
0.117555
0.117415
0.117275
0.117135
0.116997
0.116859
0.116723
0.116588
0.116454
0.116323
0.116194
0.116066
0.115941
0.115817
0.115695
0.115575
0.115457
0.115341
0.115226
0.115113
0.115001
0.11489
0.114782
0.114675
0.114569
0.114465
0.114364
0.114264
0.114167
0.114073
0.113982
0.113894
0.113809
0.113728
0.11365
0.113577
0.113507
0.113442
0.11338
0.113323
0.113269
0.11322
0.113175
0.113133
0.113096
0.113061
0.113031
0.113004
0.11298
0.112959
0.112942
0.112928
0.112918
0.112911
0.112907
0.112907
0.112911
0.112911
0.1
0.100018
0.100071
0.10015
0.100242
0.100337
0.100427
0.100507
0.100574
0.100628
0.10067
0.100702
0.100726
0.100742
0.100751
0.100756
0.100756
0.100756
0.100756
0.100761
0.100775
0.100799
0.100837
0.100891
0.100962
0.10105
0.101156
0.10128
0.101421
0.101577
0.101748
0.10193
0.10212
0.102316
0.102513
0.102709
0.102901
0.103087
0.103268
0.103443
0.103613
0.10378
0.103946
0.104113
0.104283
0.104458
0.104639
0.104829
0.105029
0.10524
0.105464
0.105701
0.105953
0.10622
0.106501
0.106796
0.107103
0.107422
0.107749
0.108085
0.108426
0.108771
0.109118
0.109466
0.109815
0.110164
0.110512
0.11086
0.111208
0.111558
0.11191
0.112266
0.112628
0.112996
0.113373
0.11376
0.114157
0.114566
0.114988
0.115424
0.115872
0.116333
0.116807
0.117292
0.117788
0.118293
0.118806
0.119325
0.119848
0.120373
0.120898
0.121422
0.121943
0.122459
0.12297
0.123474
0.12397
0.124457
0.124936
0.125407
0.125868
0.126322
0.126768
0.127206
0.127638
0.128063
0.128483
0.128898
0.129308
0.129714
0.130117
0.130515
0.13091
0.131301
0.131688
0.132071
0.132448
0.132819
0.133184
0.133542
0.133891
0.134231
0.134561
0.13488
0.135188
0.135483
0.135765
0.136034
0.136288
0.136529
0.136756
0.13697
0.137169
0.137356
0.137531
0.137694
0.137846
0.137988
0.138122
0.138248
0.138366
0.13848
0.138588
0.138692
0.138793
0.138891
0.138987
0.139082
0.139176
0.139268
0.13936
0.13945
0.139538
0.139625
0.13971