# vtk DataFile Version 3.0
LBM Fluid Grid
ASCII
DATASET STRUCTURED_POINTS
DIMENSIONS 400 150 1
ORIGIN 0 0 0
SPACING 1 1 1
POINT_DATA 60000
SCALARS VelocityMagnitude double 1
LOOKUP_TABLE default
0.1
0.099841
0.0996831
0.0995768
0.0995553
0.0996219
0.0997535
0.0999139
0.100069
0.100199
0.100303
0.100396
0.100499
0.100629
0.100789
0.100966
0.101137
0.101271
0.101347
0.101352
0.101294
0.101189
0.101064
0.100947
0.100859
0.100814
0.100816
0.10086
0.100939
0.101045
0.10117
0.101312
0.101469
0.101644
0.101838
0.102053
0.102288
0.102541
0.102806
0.103076
0.103343
0.103598
0.103834
0.104047
0.104233
0.104394
0.104532
0.104652
0.104759
0.104863
0.104968
0.105083
0.105213
0.105364
0.10554
0.105744
0.105977
0.106241
0.106537
0.106862
0.107217
0.107599
0.108006
0.108435
0.108882
0.109344
0.109815
0.110293
0.110771
0.111247
0.111716
0.112176
0.112624
0.11306
0.113484
0.113897
0.114302
0.114703
0.115101
0.115502
0.115909
0.116324
0.11675
0.11719
0.117643
0.118111
0.118591
0.119084
0.119585
0.120093
0.120604
0.121115
0.121622
0.122121
0.122609
0.123081
0.123535
0.123969
0.124379
0.124766
0.125128
0.125465
0.125779
0.126071
0.126343
0.126598
0.12684
0.127071
0.127295
0.127516
0.127738
0.127962
0.128192
0.12843
0.128677
0.128934
0.129201
0.129478
0.129763
0.130056
0.130354
0.130656
0.130959
0.13126
0.131558
0.13185
0.132133
0.132405
0.132664
0.132907
0.133132
0.133338
0.133523
0.133684
0.133821
0.133934
0.13402
0.134081
0.134115
0.134124
0.134109
0.13407
0.134009
0.133927
0.133826
0.133709
0.133576
0.13343
0.133272
0.133103
0.132924
0.132736
0.13254
0.132336
0.132122
0.1319
0.131668
0.131424
0.13117
0.130902
0.130619
0.130322
0.130008
0.129677
0.129328
0.12896
0.128573
0.128167
0.127744
0.127303
0.126845
0.126373
0.125889
0.125394
0.124892
0.124386
0.123878
0.123371
0.122869
0.122375
0.121891
0.121421
0.120965
0.120527
0.120106
0.119703
0.119319
0.118954
0.118605
0.118272
0.117954
0.117648
0.117353
0.117066
0.116785
0.116509
0.116237
0.115965
0.115695
0.115425
0.115154
0.114883
0.114612
0.114342
0.114072
0.113805
0.11354
0.113279
0.113023
0.112772
0.112527
0.112289
0.112057
0.111833
0.111616
0.111407
0.111203
0.111007
0.110816
0.110631
0.11045
0.110274
0.110101
0.109931
0.109764
0.109598
0.109434
0.10927
0.109107
0.108943
0.108779
0.108615
0.108449
0.108281
0.108111
0.10794
0.107766
0.107589
0.10741
0.107228
0.107044
0.106857
0.106669
0.10648
0.10629
0.106099
0.10591
0.105723
0.105538
0.105356
0.10518
0.105009
0.104844
0.104687
0.104538
0.104397
0.104265
0.104143
0.104031
0.103928
0.103834
0.10375
0.103674
0.103606
0.103545
0.103491
0.103443
0.103399
0.103359
0.103321
0.103287
0.103253
0.103221
0.103189
0.103157
0.103125
0.103093
0.10306
0.103028
0.102995
0.102963
0.102931
0.1029
0.10287
0.102841
0.102813
0.102786
0.102761
0.102736
0.102713
0.10269
0.102667
0.102644
0.10262
0.102595
0.102569
0.102539
0.102507
0.102471
0.10243
0.102384
0.102333
0.102275
0.102211
0.10214
0.102063
0.10198
0.101892
0.101798
0.1017
0.101599
0.101496
0.101392
0.101288
0.101185
0.101085
0.100988
0.100894
0.100806
0.100723
0.100646
0.100575
0.100512
0.100456
0.100408
0.100367
0.100334
0.100309
0.100293
0.100284
0.100283
0.100291
0.100306
0.100329
0.100359
0.100397
0.100442
0.100494
0.100553
0.100619
0.100691
0.10077
0.100854
0.100945
0.101041
0.101141
0.101247
0.101357
0.10147
0.101587
0.101707
0.101829
0.101953
0.102077
0.102202
0.102327
0.10245
0.102571
0.102689
0.102803
0.102912
0.103014
0.103109
0.103195
0.103272
0.103339
0.103396
0.103442
0.103478
0.103505
0.103522
0.103531
0.103533
0.103529
0.103521
0.103508
0.103492
0.103475
0.103456
0.103437
0.103417
0.103398
0.10338
0.103361
0.103344
0.103327
0.10331
0.103294
0.103278
0.103262
0.103246
0.103229
0.103212
0.103194
0.103175
0.103156
0.103135
0.103113
0.10309
0.10309
0.1
0.0998408
0.0996826
0.0995759
0.0995541
0.0996206
0.0997523
0.0999129
0.100068
0.100198
0.100302
0.100395
0.100498
0.100627
0.100787
0.100965
0.101135
0.10127
0.101346
0.101352
0.101293
0.101188
0.101063
0.100945
0.100857
0.100813
0.100814
0.100858
0.100938
0.101044
0.10117
0.101311
0.101469
0.101644
0.101838
0.102053
0.102289
0.102542
0.102808
0.103078
0.103345
0.103601
0.103837
0.10405
0.104237
0.104398
0.104536
0.104656
0.104763
0.104866
0.104972
0.105086
0.105216
0.105367
0.105542
0.105745
0.105978
0.106242
0.106537
0.106862
0.107217
0.107599
0.108005
0.108434
0.108881
0.109343
0.109814
0.110292
0.110771
0.111247
0.111716
0.112176
0.112624
0.11306
0.113484
0.113898
0.114303
0.114703
0.115102
0.115503
0.115909
0.116324
0.11675
0.11719
0.117643
0.11811
0.11859
0.119082
0.119584
0.120091
0.120602
0.121113
0.12162
0.122119
0.122606
0.123078
0.123532
0.123966
0.124376
0.124763
0.125125
0.125462
0.125776
0.126068
0.126339
0.126594
0.126835
0.127066
0.12729
0.127511
0.127732
0.127956
0.128186
0.128424
0.128671
0.128927
0.129194
0.12947
0.129756
0.130048
0.130346
0.130648
0.130951
0.131253
0.131551
0.131843
0.132126
0.132398
0.132657
0.1329
0.133125
0.133331
0.133515
0.133677
0.133814
0.133927
0.134013
0.134074
0.134108
0.134117
0.134102
0.134063
0.134001
0.13392
0.133819
0.133701
0.133569
0.133422
0.133264
0.133095
0.132917
0.132729
0.132533
0.132329
0.132116
0.131893
0.131661
0.131419
0.131164
0.130896
0.130614
0.130317
0.130003
0.129672
0.129323
0.128955
0.128569
0.128163
0.12774
0.127299
0.126841
0.12637
0.125885
0.125391
0.124889
0.124382
0.123874
0.123367
0.122866
0.122372
0.121888
0.121418
0.120962
0.120524
0.120103
0.119701
0.119317
0.118951
0.118603
0.118271
0.117953
0.117647
0.117352
0.117065
0.116785
0.116509
0.116236
0.115965
0.115695
0.115425
0.115155
0.114884
0.114613
0.114343
0.114073
0.113806
0.113542
0.113281
0.113025
0.112774
0.112529
0.112291
0.112059
0.111835
0.111618
0.111409
0.111205
0.111009
0.110818
0.110633
0.110452
0.110276
0.110103
0.109933
0.109765
0.109599
0.109435
0.109271
0.109107
0.108944
0.10878
0.108615
0.108449
0.108281
0.108112
0.10794
0.107766
0.10759
0.10741
0.107229
0.107044
0.106858
0.10667
0.10648
0.10629
0.1061
0.105911
0.105723
0.105538
0.105357
0.105181
0.10501
0.104845
0.104688
0.104538
0.104398
0.104266
0.104144
0.104031
0.103928
0.103835
0.10375
0.103675
0.103607
0.103546
0.103492
0.103443
0.103399
0.103359
0.103322
0.103287
0.103253
0.103221
0.103189
0.103157
0.103125
0.103093
0.10306
0.103028
0.102995
0.102963
0.102931
0.1029
0.10287
0.102841
0.102813
0.102786
0.10276
0.102736
0.102712
0.102689
0.102666
0.102643
0.10262
0.102595
0.102568
0.102539
0.102506
0.10247
0.102429
0.102383
0.102332
0.102274
0.10221
0.10214
0.102063
0.10198
0.101891
0.101797
0.1017
0.101599
0.101496
0.101392
0.101288
0.101185
0.101085
0.100987
0.100894
0.100806
0.100723
0.100646
0.100576
0.100512
0.100456
0.100408
0.100367
0.100335
0.10031
0.100293
0.100285
0.100284
0.100292
0.100307
0.10033
0.10036
0.100398
0.100443
0.100496
0.100555
0.10062
0.100693
0.100771
0.100856
0.100946
0.101042
0.101143
0.101249
0.101359
0.101472
0.101589
0.101709
0.101831
0.101954
0.102079
0.102203
0.102328
0.102451
0.102572
0.10269
0.102804
0.102912
0.103014
0.103109
0.103195
0.103272
0.103339
0.103395
0.103441
0.103477
0.103504
0.103521
0.10353
0.103532
0.103528
0.103519
0.103506
0.103491
0.103474
0.103455
0.103436
0.103416
0.103397
0.103378
0.10336
0.103343
0.103326
0.103309
0.103293
0.103277
0.103261
0.103245
0.103229
0.103211
0.103194
0.103175
0.103155
0.103134
0.103112
0.103089
0.103089
0.1
0.099841
0.0996832
0.0995768
0.0995553
0.0996219
0.0997535
0.0999139
0.100069
0.100199
0.100303
0.100396
0.100499
0.100629
0.100789
0.100966
0.101137
0.101271
0.101347
0.101352
0.101294
0.101189
0.101064
0.100947
0.100859
0.100814
0.100816
0.10086
0.100939
0.101045
0.10117
0.101312
0.101469
0.101644
0.101838
0.102053
0.102288
0.102541
0.102806
0.103076
0.103343
0.103598
0.103834
0.104047
0.104233
0.104394
0.104532
0.104652
0.104759
0.104863
0.104968
0.105083
0.105213
0.105364
0.10554
0.105744
0.105977
0.106241
0.106537
0.106862
0.107217
0.107599
0.108006
0.108435
0.108882
0.109344
0.109815
0.110293
0.110771
0.111247
0.111716
0.112176
0.112624
0.11306
0.113484
0.113897
0.114302
0.114703
0.115101
0.115502
0.115909
0.116324
0.11675
0.11719
0.117643
0.118111
0.118591
0.119084
0.119585
0.120093
0.120604
0.121115
0.121622
0.122121
0.122609
0.123081
0.123535
0.123969
0.124379
0.124766
0.125128
0.125465
0.125779
0.126071
0.126343
0.126598
0.12684
0.127071
0.127295
0.127516
0.127738
0.127962
0.128192
0.12843
0.128677
0.128934
0.129201
0.129478
0.129763
0.130056
0.130354
0.130656
0.130959
0.13126
0.131558
0.13185
0.132133
0.132405
0.132664
0.132907
0.133132
0.133338
0.133523
0.133684
0.133821
0.133934
0.13402
0.134081
0.134115
0.134124
0.134109
0.13407
0.134009
0.133927
0.133826
0.133709
0.133576
0.13343
0.133272
0.133103
0.132924
0.132736
0.13254
0.132336
0.132122
0.1319
0.131668
0.131424
0.13117
0.130902
0.13062
0.130322
0.130008
0.129677
0.129328
0.12896
0.128573
0.128167
0.127744
0.127303
0.126845
0.126373
0.125889
0.125395
0.124892
0.124386
0.123878
0.123371
0.122869
0.122375
0.121891
0.121421
0.120965
0.120527
0.120106
0.119703
0.119319
0.118954
0.118605
0.118272
0.117954
0.117648
0.117353
0.117066
0.116785
0.116509
0.116237
0.115966
0.115695
0.115425
0.115154
0.114883
0.114612
0.114342
0.114072
0.113805
0.11354
0.113279
0.113023
0.112772
0.112527
0.112289
0.112057
0.111833
0.111616
0.111407
0.111204
0.111007
0.110816
0.110631
0.11045
0.110274
0.110101
0.109931
0.109764
0.109598
0.109434
0.10927
0.109107
0.108943
0.108779
0.108615
0.108449
0.108281
0.108111
0.10794
0.107766
0.107589
0.10741
0.107228
0.107044
0.106857
0.106669
0.10648
0.10629
0.106099
0.10591
0.105723
0.105538
0.105356
0.10518
0.105009
0.104844
0.104687
0.104537
0.104397
0.104265
0.104143
0.104031
0.103928
0.103834
0.10375
0.103674
0.103606
0.103545
0.103491
0.103443
0.103399
0.103359
0.103321
0.103287
0.103253
0.103221
0.103189
0.103157
0.103125
0.103093
0.10306
0.103028
0.102995
0.102963
0.102931
0.1029
0.10287
0.102841
0.102813
0.102786
0.102761
0.102736
0.102713
0.10269
0.102667
0.102644
0.10262
0.102595
0.102569
0.102539
0.102507
0.102471
0.10243
0.102384
0.102333
0.102275
0.102211
0.10214
0.102063
0.10198
0.101892
0.101798
0.1017
0.101599
0.101496
0.101392
0.101288
0.101185
0.101085
0.100988
0.100894
0.100806
0.100723
0.100646
0.100576
0.100512
0.100456
0.100408
0.100367
0.100334
0.100309
0.100293
0.100284
0.100283
0.100291
0.100306
0.100328
0.100359
0.100397
0.100442
0.100494
0.100553
0.100619
0.100691
0.10077
0.100854
0.100945
0.10104
0.101141
0.101247
0.101357
0.10147
0.101587
0.101707
0.101829
0.101953
0.102077
0.102202
0.102327
0.10245
0.102571
0.102689
0.102803
0.102912
0.103014
0.103109
0.103195
0.103272
0.103339
0.103396
0.103442
0.103478
0.103505
0.103522
0.103531
0.103533
0.103529
0.103521
0.103508
0.103492
0.103475
0.103456
0.103437
0.103418
0.103398
0.10338
0.103361
0.103344
0.103327
0.10331
0.103294
0.103278
0.103262
0.103246
0.103229
0.103212
0.103194
0.103175
0.103156
0.103135
0.103113
0.10309
0.10309
0.1
0.0998417
0.0996849
0.0995797
0.0995589
0.0996257
0.099757
0.0999168
0.100071
0.100202
0.100306
0.1004
0.100504
0.100635
0.100795
0.100972
0.101141
0.101274
0.101349
0.101354
0.101296
0.101192
0.101069
0.100952
0.100865
0.10082
0.100821
0.100864
0.100943
0.101048
0.101172
0.101313
0.10147
0.101643
0.101837
0.102051
0.102285
0.102537
0.102801
0.10307
0.103335
0.103589
0.103824
0.104036
0.104222
0.104382
0.10452
0.10464
0.104748
0.104852
0.104958
0.105074
0.105205
0.105357
0.105534
0.105739
0.105973
0.106239
0.106535
0.106862
0.107217
0.1076
0.108008
0.108437
0.108885
0.109346
0.109818
0.110295
0.110773
0.111248
0.111717
0.112176
0.112623
0.113059
0.113482
0.113895
0.114301
0.114701
0.1151
0.115501
0.115908
0.116324
0.116751
0.117191
0.117645
0.118113
0.118595
0.119088
0.11959
0.120099
0.12061
0.121122
0.121629
0.122128
0.122616
0.123089
0.123543
0.123977
0.124388
0.124775
0.125137
0.125475
0.125789
0.126082
0.126354
0.12661
0.126852
0.127084
0.12731
0.127532
0.127754
0.12798
0.128211
0.128449
0.128697
0.128955
0.129222
0.1295
0.129785
0.130078
0.130377
0.130678
0.130981
0.131283
0.131581
0.131873
0.132156
0.132427
0.132686
0.132929
0.133154
0.13336
0.133544
0.133705
0.133842
0.133955
0.134041
0.134102
0.134136
0.134146
0.13413
0.134091
0.13403
0.133949
0.133848
0.133731
0.133598
0.133452
0.133294
0.133124
0.132946
0.132758
0.132561
0.132356
0.132142
0.131919
0.131686
0.131442
0.131187
0.130918
0.130635
0.130337
0.130023
0.129691
0.129341
0.128973
0.128586
0.12818
0.127756
0.127315
0.126857
0.126385
0.125901
0.125406
0.124904
0.124397
0.123889
0.123382
0.12288
0.122386
0.121902
0.121431
0.120975
0.120535
0.120114
0.119711
0.119326
0.11896
0.118611
0.118278
0.117959
0.117652
0.117356
0.117069
0.116787
0.116511
0.116237
0.115966
0.115695
0.115424
0.115153
0.114881
0.11461
0.114339
0.114069
0.113801
0.113536
0.113274
0.113018
0.112767
0.112521
0.112283
0.112051
0.111827
0.11161
0.111401
0.111198
0.111001
0.110811
0.110626
0.110445
0.110269
0.110097
0.109927
0.10976
0.109595
0.109431
0.109267
0.109104
0.108941
0.108777
0.108613
0.108447
0.10828
0.10811
0.107939
0.107764
0.107588
0.107409
0.107227
0.107042
0.106856
0.106668
0.106478
0.106288
0.106097
0.105908
0.10572
0.105535
0.105354
0.105177
0.105006
0.104842
0.104684
0.104535
0.104394
0.104263
0.104141
0.104028
0.103925
0.103832
0.103747
0.103672
0.103604
0.103543
0.103489
0.103441
0.103397
0.103357
0.10332
0.103285
0.103252
0.10322
0.103188
0.103157
0.103125
0.103093
0.103061
0.103029
0.102996
0.102964
0.102933
0.102902
0.102872
0.102842
0.102815
0.102788
0.102762
0.102738
0.102714
0.102692
0.102669
0.102646
0.102622
0.102597
0.102571
0.102541
0.102509
0.102473
0.102432
0.102386
0.102335
0.102277
0.102213
0.102142
0.102065
0.101982
0.101893
0.101799
0.101701
0.1016
0.101497
0.101393
0.101289
0.101186
0.101086
0.100988
0.100895
0.100806
0.100723
0.100646
0.100575
0.100511
0.100455
0.100406
0.100365
0.100332
0.100307
0.10029
0.100281
0.10028
0.100287
0.100302
0.100324
0.100355
0.100392
0.100437
0.100489
0.100548
0.100613
0.100686
0.100764
0.100849
0.100939
0.101035
0.101136
0.101242
0.101351
0.101465
0.101582
0.101702
0.101824
0.101948
0.102073
0.102198
0.102323
0.102447
0.102569
0.102687
0.102802
0.102911
0.103014
0.103109
0.103196
0.103273
0.103341
0.103398
0.103445
0.103481
0.103508
0.103526
0.103535
0.103537
0.103534
0.103525
0.103512
0.103497
0.103479
0.10346
0.103441
0.103421
0.103402
0.103383
0.103364
0.103347
0.103329
0.103313
0.103296
0.10328
0.103264
0.103248
0.103231
0.103214
0.103196
0.103177
0.103158
0.103137
0.103115
0.103093
0.103093
0.1
0.0998427
0.0996879
0.0995845
0.0995649
0.0996321
0.0997629
0.0999217
0.100076
0.100206
0.100312
0.100407
0.100513
0.100644
0.100804
0.10098
0.101147
0.101279
0.101352
0.101358
0.1013
0.101198
0.101076
0.100961
0.100874
0.100829
0.100829
0.100872
0.100949
0.101052
0.101175
0.101315
0.10147
0.101643
0.101835
0.102048
0.102281
0.102531
0.102793
0.10306
0.103323
0.103574
0.103808
0.104018
0.104202
0.104362
0.104499
0.10462
0.104729
0.104833
0.104941
0.105058
0.105192
0.105345
0.105524
0.105731
0.105967
0.106234
0.106532
0.106861
0.107218
0.107602
0.108011
0.108441
0.108889
0.109351
0.109822
0.110299
0.110776
0.111251
0.111718
0.112176
0.112623
0.113057
0.11348
0.113893
0.114298
0.114698
0.115097
0.115499
0.115907
0.116323
0.116752
0.117193
0.117649
0.118118
0.1186
0.119095
0.119598
0.120108
0.12062
0.121133
0.121641
0.122141
0.122629
0.123102
0.123557
0.123991
0.124402
0.124789
0.125152
0.125491
0.125806
0.126099
0.126373
0.12663
0.126874
0.127107
0.127334
0.127558
0.127782
0.128009
0.128242
0.128482
0.128731
0.128989
0.129258
0.129536
0.129822
0.130116
0.130414
0.130716
0.131019
0.131321
0.131619
0.13191
0.132193
0.132464
0.132723
0.132965
0.13319
0.133395
0.133579
0.13374
0.133878
0.13399
0.134076
0.134137
0.134172
0.134181
0.134166
0.134127
0.134067
0.133985
0.133885
0.133768
0.133635
0.133489
0.13333
0.133161
0.132982
0.132793
0.132596
0.13239
0.132175
0.131951
0.131717
0.131472
0.131216
0.130946
0.130662
0.130363
0.130047
0.129715
0.129364
0.128995
0.128607
0.128201
0.127776
0.127335
0.126877
0.126405
0.12592
0.125425
0.124923
0.124416
0.123907
0.1234
0.122898
0.122403
0.121918
0.121447
0.12099
0.12055
0.120128
0.119724
0.119338
0.118971
0.118621
0.118286
0.117966
0.117659
0.117362
0.117073
0.116791
0.116513
0.116239
0.115966
0.115694
0.115423
0.11515
0.114878
0.114606
0.114334
0.114063
0.113794
0.113529
0.113267
0.113009
0.112758
0.112512
0.112273
0.112041
0.111817
0.1116
0.11139
0.111188
0.110991
0.110801
0.110617
0.110437
0.110261
0.110089
0.10992
0.109754
0.109589
0.109425
0.109263
0.1091
0.108937
0.108774
0.10861
0.108444
0.108277
0.108108
0.107936
0.107762
0.107586
0.107406
0.107224
0.10704
0.106853
0.106665
0.106475
0.106284
0.106094
0.105904
0.105717
0.105532
0.10535
0.105174
0.105002
0.104838
0.10468
0.104531
0.104391
0.104259
0.104137
0.104024
0.103922
0.103828
0.103744
0.103668
0.1036
0.10354
0.103486
0.103438
0.103394
0.103354
0.103318
0.103283
0.103251
0.103219
0.103187
0.103156
0.103125
0.103093
0.103062
0.10303
0.102998
0.102966
0.102934
0.102904
0.102874
0.102845
0.102817
0.102791
0.102765
0.102741
0.102717
0.102694
0.102672
0.102649
0.102625
0.102601
0.102574
0.102545
0.102513
0.102476
0.102435
0.102389
0.102338
0.10228
0.102216
0.102145
0.102068
0.101984
0.101895
0.101802
0.101704
0.101602
0.101499
0.101395
0.10129
0.101187
0.101087
0.100989
0.100895
0.100806
0.100722
0.100645
0.100574
0.10051
0.100453
0.100404
0.100362
0.100328
0.100303
0.100285
0.100276
0.100275
0.100281
0.100295
0.100318
0.100347
0.100385
0.100429
0.100481
0.10054
0.100605
0.100677
0.100755
0.10084
0.10093
0.101026
0.101127
0.101233
0.101343
0.101457
0.101574
0.101694
0.101817
0.101941
0.102066
0.102192
0.102318
0.102442
0.102564
0.102684
0.102799
0.102909
0.103013
0.103109
0.103197
0.103275
0.103344
0.103402
0.103449
0.103486
0.103514
0.103532
0.103541
0.103544
0.10354
0.103532
0.103519
0.103503
0.103486
0.103467
0.103447
0.103427
0.103408
0.103388
0.10337
0.103351
0.103334
0.103317
0.1033
0.103284
0.103268
0.103251
0.103234
0.103217
0.103199
0.103181
0.103161
0.103141
0.103119
0.103097
0.103097
0.1
0.0998442
0.0996921
0.0995911
0.0995732
0.099641
0.0997711
0.0999285
0.100081
0.100212
0.100319
0.100417
0.100525
0.100657
0.100817
0.100991
0.101156
0.101285
0.101357
0.101362
0.101306
0.101206
0.101086
0.100973
0.100887
0.100842
0.100841
0.100882
0.100957
0.101058
0.10118
0.101317
0.101471
0.101642
0.101832
0.102043
0.102274
0.102522
0.102782
0.103045
0.103305
0.103554
0.103785
0.103992
0.104175
0.104334
0.104471
0.104592
0.104702
0.104808
0.104918
0.105037
0.105172
0.105329
0.10551
0.105719
0.105958
0.106228
0.106528
0.106859
0.107218
0.107604
0.108015
0.108446
0.108895
0.109357
0.109828
0.110304
0.110781
0.111254
0.11172
0.112176
0.112621
0.113055
0.113477
0.113889
0.114294
0.114694
0.115094
0.115497
0.115905
0.116324
0.116753
0.117196
0.117653
0.118125
0.118609
0.119105
0.11961
0.120121
0.120635
0.121148
0.121657
0.122158
0.122647
0.12312
0.123576
0.12401
0.124422
0.12481
0.125174
0.125513
0.12583
0.126124
0.1264
0.126659
0.126904
0.12714
0.127369
0.127595
0.127821
0.12805
0.128285
0.128527
0.128778
0.129038
0.129308
0.129587
0.129874
0.130168
0.130468
0.13077
0.131073
0.131374
0.131672
0.131963
0.132245
0.132516
0.132774
0.133016
0.133241
0.133445
0.133629
0.13379
0.133927
0.134039
0.134125
0.134186
0.134221
0.134231
0.134216
0.134178
0.134118
0.134037
0.133937
0.13382
0.133687
0.133541
0.133382
0.133212
0.133032
0.132843
0.132645
0.132438
0.132222
0.131996
0.131761
0.131514
0.131256
0.130985
0.130699
0.130398
0.130082
0.129748
0.129396
0.129026
0.128637
0.12823
0.127805
0.127363
0.126905
0.126432
0.125947
0.125452
0.12495
0.124442
0.123933
0.123426
0.122923
0.122427
0.121942
0.121469
0.121012
0.12057
0.120147
0.119741
0.119355
0.118986
0.118634
0.118298
0.117977
0.117668
0.117369
0.117079
0.116796
0.116517
0.116241
0.115967
0.115694
0.115421
0.115147
0.114874
0.1146
0.114327
0.114055
0.113785
0.113519
0.113256
0.112998
0.112745
0.112499
0.11226
0.112028
0.111803
0.111586
0.111376
0.111174
0.110978
0.110788
0.110604
0.110425
0.11025
0.110079
0.109911
0.109745
0.109581
0.109418
0.109256
0.109094
0.108932
0.108769
0.108606
0.10844
0.108273
0.108104
0.107933
0.107759
0.107582
0.107403
0.107221
0.107036
0.106849
0.106661
0.10647
0.10628
0.106089
0.105899
0.105711
0.105526
0.105345
0.105168
0.104997
0.104832
0.104675
0.104526
0.104385
0.104254
0.104132
0.104019
0.103916
0.103823
0.103739
0.103663
0.103595
0.103535
0.103481
0.103433
0.10339
0.103351
0.103315
0.103281
0.103248
0.103217
0.103186
0.103156
0.103125
0.103094
0.103063
0.103031
0.103
0.102968
0.102937
0.102907
0.102877
0.102848
0.102821
0.102794
0.102769
0.102745
0.102721
0.102699
0.102676
0.102653
0.10263
0.102605
0.102579
0.10255
0.102517
0.102481
0.10244
0.102394
0.102342
0.102284
0.10222
0.102149
0.102071
0.101988
0.101899
0.101805
0.101706
0.101605
0.101501
0.101397
0.101292
0.101189
0.101088
0.10099
0.100896
0.100806
0.100722
0.100644
0.100573
0.100508
0.10045
0.1004
0.100358
0.100324
0.100298
0.100279
0.100269
0.100267
0.100273
0.100287
0.100308
0.100338
0.100374
0.100418
0.10047
0.100528
0.100593
0.100665
0.100743
0.100828
0.100918
0.101014
0.101115
0.101221
0.101331
0.101445
0.101562
0.101683
0.101806
0.101931
0.102057
0.102183
0.10231
0.102435
0.102559
0.102679
0.102795
0.102907
0.103012
0.103109
0.103198
0.103278
0.103347
0.103406
0.103455
0.103493
0.103521
0.10354
0.10355
0.103553
0.10355
0.103541
0.103528
0.103513
0.103495
0.103476
0.103456
0.103435
0.103415
0.103396
0.103376
0.103358
0.10334
0.103323
0.103306
0.103289
0.103272
0.103256
0.103239
0.103222
0.103204
0.103185
0.103166
0.103146
0.103125
0.103103
0.103103
0.1
0.0998461
0.0996974
0.0995997
0.099584
0.0996524
0.0997817
0.0999374
0.100089
0.100219
0.100328
0.100429
0.10054
0.100674
0.100834
0.101006
0.101167
0.101293
0.101362
0.101368
0.101313
0.101216
0.101099
0.100988
0.100903
0.100858
0.100856
0.100895
0.100967
0.101066
0.101185
0.10132
0.101472
0.101641
0.101829
0.102037
0.102266
0.102511
0.102767
0.103027
0.103283
0.103528
0.103755
0.10396
0.104141
0.104299
0.104436
0.104557
0.104668
0.104776
0.104888
0.10501
0.105148
0.105307
0.105492
0.105704
0.105947
0.106219
0.106523
0.106856
0.107219
0.107607
0.108019
0.108452
0.108902
0.109364
0.109835
0.110311
0.110786
0.111258
0.111722
0.112177
0.11262
0.113052
0.113473
0.113884
0.114289
0.11469
0.11509
0.115494
0.115904
0.116324
0.116756
0.117201
0.11766
0.118134
0.11862
0.119118
0.119625
0.120138
0.120654
0.121169
0.121679
0.122181
0.12267
0.123145
0.123601
0.124036
0.124448
0.124837
0.125202
0.125543
0.12586
0.126157
0.126434
0.126696
0.126944
0.127182
0.127414
0.127643
0.127872
0.128104
0.128341
0.128586
0.128839
0.129101
0.129373
0.129653
0.129941
0.130236
0.130536
0.130839
0.131142
0.131443
0.131741
0.132031
0.132313
0.132584
0.132841
0.133082
0.133306
0.13351
0.133693
0.133854
0.13399
0.134102
0.134189
0.13425
0.134285
0.134295
0.134281
0.134243
0.134183
0.134103
0.134003
0.133886
0.133754
0.133607
0.133448
0.133278
0.133097
0.132907
0.132707
0.132499
0.132281
0.132054
0.131817
0.131568
0.131308
0.131035
0.130747
0.130445
0.130126
0.12979
0.129437
0.129065
0.128676
0.128268
0.127842
0.127399
0.12694
0.126468
0.125982
0.125487
0.124984
0.124477
0.123967
0.123459
0.122955
0.122459
0.121973
0.121499
0.12104
0.120597
0.120172
0.119765
0.119376
0.119005
0.118652
0.118314
0.117991
0.11768
0.117379
0.117087
0.116802
0.116521
0.116244
0.115968
0.115693
0.115418
0.115143
0.114868
0.114593
0.114318
0.114045
0.113774
0.113506
0.113242
0.112983
0.112729
0.112482
0.112242
0.11201
0.111785
0.111568
0.111358
0.111156
0.110961
0.110771
0.110588
0.110409
0.110235
0.110065
0.109898
0.109733
0.10957
0.109408
0.109247
0.109086
0.108925
0.108763
0.1086
0.108435
0.108268
0.1081
0.107928
0.107755
0.107578
0.107398
0.107216
0.107031
0.106844
0.106655
0.106465
0.106274
0.106083
0.105893
0.105705
0.105519
0.105338
0.105161
0.10499
0.104825
0.104668
0.104518
0.104378
0.104246
0.104125
0.104012
0.10391
0.103816
0.103732
0.103657
0.103589
0.103529
0.103476
0.103428
0.103385
0.103346
0.10331
0.103277
0.103245
0.103215
0.103185
0.103155
0.103125
0.103094
0.103064
0.103033
0.103002
0.102971
0.10294
0.10291
0.102881
0.102853
0.102825
0.102799
0.102774
0.10275
0.102727
0.102704
0.102682
0.102659
0.102636
0.102611
0.102585
0.102555
0.102523
0.102487
0.102446
0.1024
0.102348
0.102289
0.102225
0.102153
0.102076
0.101992
0.101903
0.101808
0.10171
0.101608
0.101504
0.1014
0.101295
0.101191
0.10109
0.100991
0.100897
0.100807
0.100722
0.100643
0.100571
0.100505
0.100447
0.100396
0.100353
0.100318
0.100291
0.100272
0.100261
0.100258
0.100263
0.100276
0.100297
0.100325
0.100361
0.100405
0.100456
0.100514
0.100579
0.10065
0.100728
0.100812
0.100902
0.100998
0.101099
0.101205
0.101315
0.10143
0.101548
0.101669
0.101792
0.101918
0.102045
0.102172
0.1023
0.102426
0.102551
0.102673
0.102791
0.102903
0.10301
0.103109
0.103199
0.10328
0.103351
0.103412
0.103462
0.103501
0.10353
0.10355
0.103561
0.103564
0.103561
0.103553
0.10354
0.103525
0.103506
0.103487
0.103467
0.103446
0.103425
0.103405
0.103385
0.103366
0.103348
0.10333
0.103312
0.103295
0.103278
0.103261
0.103244
0.103227
0.103209
0.103191
0.103172
0.103152
0.103132
0.10311
0.10311
0.1
0.0998484
0.0997039
0.0996102
0.0995971
0.0996663
0.0997946
0.0999482
0.100098
0.100228
0.100339
0.100444
0.100558
0.100694
0.100854
0.101023
0.101181
0.101302
0.101369
0.101374
0.101322
0.101228
0.101114
0.101006
0.100922
0.100876
0.100873
0.10091
0.10098
0.101075
0.101191
0.101324
0.101472
0.101639
0.101825
0.10203
0.102256
0.102497
0.102749
0.103005
0.103257
0.103497
0.10372
0.103922
0.1041
0.104256
0.104393
0.104514
0.104627
0.104737
0.104852
0.104977
0.105118
0.105281
0.10547
0.105686
0.105932
0.106209
0.106516
0.106853
0.107218
0.107609
0.108024
0.108459
0.108909
0.109372
0.109843
0.110318
0.110792
0.111262
0.111724
0.112177
0.112618
0.113049
0.113468
0.113879
0.114284
0.114685
0.115086
0.115491
0.115903
0.116325
0.116759
0.117207
0.117669
0.118145
0.118635
0.119135
0.119645
0.12016
0.120678
0.121195
0.121706
0.122209
0.1227
0.123175
0.123632
0.124068
0.124481
0.124871
0.125237
0.125579
0.125899
0.126197
0.126477
0.126741
0.126992
0.127234
0.127469
0.127702
0.127934
0.12817
0.12841
0.128658
0.128914
0.129178
0.129452
0.129734
0.130024
0.13032
0.13062
0.130923
0.131227
0.131528
0.131825
0.132115
0.132396
0.132666
0.132922
0.133163
0.133386
0.133589
0.133772
0.133932
0.134068
0.13418
0.134267
0.134328
0.134363
0.134374
0.13436
0.134323
0.134263
0.134183
0.134084
0.133968
0.133836
0.133689
0.13353
0.133359
0.133177
0.132985
0.132784
0.132574
0.132354
0.132125
0.131885
0.131634
0.131372
0.131096
0.130806
0.130501
0.13018
0.129843
0.129487
0.129114
0.128723
0.128314
0.127887
0.127444
0.126985
0.126511
0.126026
0.12553
0.125027
0.124519
0.124009
0.1235
0.122995
0.122498
0.12201
0.121535
0.121074
0.12063
0.120202
0.119793
0.119402
0.119029
0.118673
0.118333
0.118008
0.117694
0.117391
0.117097
0.11681
0.116527
0.116247
0.115969
0.115692
0.115416
0.115139
0.114862
0.114585
0.114308
0.114033
0.11376
0.113491
0.113225
0.112965
0.11271
0.112462
0.112222
0.111989
0.111763
0.111546
0.111337
0.111135
0.110939
0.110751
0.110568
0.110391
0.110218
0.110048
0.109882
0.109718
0.109557
0.109396
0.109236
0.109076
0.108916
0.108754
0.108592
0.108428
0.108262
0.108093
0.107922
0.107749
0.107572
0.107392
0.10721
0.107025
0.106837
0.106648
0.106457
0.106266
0.106075
0.105885
0.105696
0.105511
0.105329
0.105152
0.104981
0.104816
0.104659
0.10451
0.104369
0.104238
0.104116
0.104004
0.103901
0.103808
0.103724
0.103649
0.103581
0.103521
0.103468
0.103421
0.103378
0.10334
0.103305
0.103272
0.103241
0.103212
0.103182
0.103154
0.103124
0.103095
0.103065
0.103035
0.103005
0.102975
0.102945
0.102915
0.102886
0.102858
0.102831
0.102805
0.10278
0.102756
0.102733
0.102711
0.102688
0.102666
0.102643
0.102618
0.102592
0.102562
0.10253
0.102494
0.102452
0.102406
0.102354
0.102295
0.10223
0.102159
0.102081
0.101997
0.101907
0.101813
0.101714
0.101612
0.101508
0.101403
0.101298
0.101194
0.101092
0.100993
0.100898
0.100807
0.100722
0.100642
0.100569
0.100503
0.100443
0.100392
0.100347
0.100311
0.100283
0.100263
0.100251
0.100247
0.100251
0.100263
0.100283
0.100311
0.100346
0.100389
0.100439
0.100497
0.100561
0.100632
0.10071
0.100794
0.100884
0.10098
0.101081
0.101187
0.101297
0.101412
0.10153
0.101652
0.101776
0.101902
0.10203
0.102159
0.102288
0.102415
0.102542
0.102665
0.102784
0.102899
0.103007
0.103108
0.1032
0.103283
0.103356
0.103418
0.103469
0.10351
0.10354
0.103561
0.103573
0.103577
0.103575
0.103567
0.103554
0.103538
0.10352
0.1035
0.103479
0.103458
0.103437
0.103416
0.103396
0.103376
0.103357
0.103338
0.10332
0.103303
0.103285
0.103268
0.103251
0.103233
0.103216
0.103198
0.103179
0.10316
0.10314
0.103119
0.103119
0.1
0.0998512
0.0997115
0.0996225
0.0996126
0.0996828
0.0998099
0.0999612
0.100109
0.10024
0.100353
0.100461
0.100579
0.100717
0.100877
0.101043
0.101196
0.101313
0.101377
0.101381
0.101331
0.101241
0.101132
0.101026
0.100944
0.100898
0.100893
0.100927
0.100994
0.101086
0.101198
0.101327
0.101473
0.101637
0.101819
0.102022
0.102244
0.102481
0.102728
0.102979
0.103225
0.103461
0.103679
0.103876
0.104052
0.104206
0.104342
0.104465
0.104579
0.104692
0.104809
0.104938
0.105084
0.105251
0.105443
0.105664
0.105914
0.106195
0.106507
0.106848
0.107217
0.107612
0.108029
0.108466
0.108918
0.109381
0.109852
0.110326
0.110798
0.111266
0.111726
0.112177
0.112616
0.113045
0.113463
0.113873
0.114278
0.11468
0.115082
0.115489
0.115903
0.116328
0.116765
0.117216
0.117681
0.118161
0.118653
0.119157
0.119669
0.120187
0.120707
0.121226
0.12174
0.122244
0.122736
0.123212
0.12367
0.124107
0.124521
0.124912
0.125279
0.125623
0.125945
0.126246
0.126529
0.126796
0.127051
0.127296
0.127535
0.127772
0.128009
0.128248
0.128492
0.128744
0.129003
0.12927
0.129546
0.129831
0.130122
0.130419
0.13072
0.131024
0.131327
0.131628
0.131925
0.132215
0.132495
0.132764
0.133019
0.133259
0.133481
0.133684
0.133866
0.134025
0.134161
0.134272
0.134359
0.13442
0.134456
0.134467
0.134454
0.134417
0.134358
0.134279
0.134181
0.134064
0.133932
0.133786
0.133626
0.133454
0.133271