# vtk DataFile Version 3.0
LBM Fluid Grid
ASCII
DATASET STRUCTURED_POINTS
DIMENSIONS 400 150 1
ORIGIN 0 0 0
SPACING 1 1 1
POINT_DATA 60000
SCALARS VelocityMagnitude double 1
LOOKUP_TABLE default
0.1
0.100007
0.100072
0.100119
0.100104
0.100015
0.0998622
0.0996638
0.0994437
0.0992285
0.0990444
0.0989124
0.0988425
0.0988308
0.0988603
0.098906
0.0989418
0.0989466
0.0989083
0.0988249
0.098703
0.0985543
0.098393
0.0982327
0.0980855
0.0979613
0.0978681
0.0978122
0.0977981
0.0978285
0.0979048
0.0980266
0.0981925
0.0984005
0.0986484
0.0989343
0.0992564
0.099613
0.100002
0.100419
0.10086
0.101317
0.101783
0.102247
0.102699
0.103132
0.103539
0.103916
0.104262
0.10458
0.104875
0.105154
0.105425
0.105695
0.105973
0.106262
0.106569
0.106895
0.107242
0.107609
0.107995
0.108398
0.108815
0.109243
0.109677
0.110114
0.110549
0.110977
0.111395
0.1118
0.112188
0.112558
0.112909
0.113243
0.113561
0.113867
0.114165
0.114459
0.114756
0.115061
0.115379
0.115716
0.116076
0.116463
0.116879
0.117325
0.117801
0.118306
0.118838
0.119393
0.119968
0.120559
0.121161
0.12177
0.122381
0.12299
0.123592
0.124184
0.124763
0.125324
0.125867
0.126387
0.126884
0.127356
0.127802
0.128222
0.128615
0.128983
0.129326
0.129645
0.129943
0.130222
0.130484
0.130731
0.130966
0.131191
0.131408
0.13162
0.131826
0.132029
0.132228
0.132424
0.132614
0.132798
0.132974
0.133138
0.133288
0.13342
0.13353
0.133615
0.133672
0.133696
0.133686
0.133639
0.133553
0.133428
0.133265
0.133064
0.132828
0.13256
0.132263
0.131942
0.131601
0.131246
0.13088
0.130509
0.130138
0.129771
0.129412
0.129064
0.128729
0.128411
0.128111
0.127829
0.127566
0.127322
0.127096
0.126887
0.126693
0.126512
0.126342
0.12618
0.126024
0.12587
0.125717
0.125563
0.125404
0.125238
0.125065
0.124883
0.124692
0.12449
0.124278
0.124055
0.123824
0.123583
0.123335
0.123081
0.122821
0.122557
0.122291
0.122021
0.121751
0.121479
0.121206
0.120932
0.120656
0.120379
0.120099
0.119816
0.119529
0.119236
0.118937
0.118631
0.118318
0.117995
0.117664
0.117323
0.116972
0.116613
0.116244
0.115867
0.115482
0.11509
0.114693
0.114292
0.113889
0.113485
0.113082
0.112681
0.112285
0.111895
0.111513
0.11114
0.110778
0.110428
0.110091
0.109767
0.109458
0.109164
0.108885
0.108621
0.108372
0.108139
0.10792
0.107715
0.107523
0.107345
0.10718
0.107026
0.106883
0.106751
0.106628
0.106515
0.106412
0.106316
0.106228
0.106148
0.106075
0.106009
0.105948
0.105894
0.105844
0.105799
0.105759
0.105723
0.105691
0.105663
0.105639
0.105619
0.105604
0.105593
0.105588
0.105588
0.105593
0.105604
0.105622
0.105644
0.105673
0.105706
0.105744
0.105785
0.105829
0.105874
0.10592
0.105964
0.106004
0.10604
0.106069
0.106088
0.106096
0.10609
0.106069
0.10603
0.105971
0.105893
0.105792
0.10567
0.105525
0.105358
0.10517
0.104962
0.104737
0.104496
0.104242
0.103979
0.103709
0.103436
0.103162
0.10289
0.102623
0.102364
0.102115
0.101877
0.101653
0.101443
0.101248
0.10107
0.100908
0.100763
0.100635
0.100524
0.10043
0.100351
0.100289
0.100241
0.100207
0.100187
0.100179
0.100183
0.100198
0.100224
0.100258
0.100302
0.100355
0.100415
0.100482
0.100557
0.100637
0.100723
0.100814
0.10091
0.101009
0.101112
0.101217
0.101324
0.101433
0.101543
0.101653
0.101764
0.101875
0.101985
0.102094
0.102201
0.102305
0.102405
0.102501
0.10259
0.102673
0.102747
0.102811
0.102863
0.102903
0.102929
0.10294
0.102934
0.102912
0.102872
0.102814
0.102738
0.102645
0.102535
0.102409
0.102268
0.102115
0.101951
0.101779
0.101601
0.10142
0.101238
0.101057
0.100881
0.10071
0.100548
0.100396
0.100254
0.100126
0.10001
0.0999092
0.0998222
0.0997498
0.0996919
0.0996484
0.0996189
0.0996031
0.0996003
0.09961
0.0996315
0.0996639
0.0997064
0.099758
0.0998176
0.0998841
0.0999561
0.100032
0.100111
0.100192
0.100272
0.100351
0.100426
0.100498
0.100565
0.100626
0.10068
0.100727
0.100767
0.1008
0.100824
0.100841
0.100841
0.1
0.100008
0.100075
0.100123
0.100109
0.10002
0.0998676
0.0996692
0.099449
0.0992335
0.099049
0.0989166
0.0988462
0.0988341
0.0988634
0.0989091
0.098945
0.0989499
0.0989116
0.098828
0.0987057
0.0985564
0.0983944
0.0982335
0.0980856
0.0979608
0.0978672
0.0978109
0.0977965
0.0978267
0.0979028
0.0980245
0.0981904
0.0983984
0.0986464
0.0989324
0.0992547
0.0996115
0.100001
0.100418
0.10086
0.101318
0.101784
0.102248
0.102702
0.103135
0.103543
0.10392
0.104267
0.104586
0.104881
0.105161
0.105432
0.105702
0.10598
0.10627
0.106576
0.106903
0.107249
0.107616
0.108002
0.108405
0.108822
0.10925
0.109684
0.11012
0.110555
0.110983
0.1114
0.111804
0.112192
0.112562
0.112913
0.113246
0.113564
0.113869
0.114166
0.11446
0.114756
0.11506
0.115377
0.115713
0.116073
0.116459
0.116874
0.117319
0.117794
0.118299
0.11883
0.119385
0.119959
0.12055
0.121152
0.12176
0.122371
0.122979
0.123582
0.124174
0.124752
0.125314
0.125856
0.126376
0.126873
0.127345
0.127791
0.128211
0.128604
0.128972
0.129315
0.129634
0.129932
0.130211
0.130473
0.13072
0.130955
0.13118
0.131397
0.131608
0.131815
0.132018
0.132217
0.132413
0.132603
0.132788
0.132963
0.133128
0.133278
0.13341
0.133521
0.133606
0.133663
0.133688
0.133678
0.13363
0.133545
0.13342
0.133257
0.133056
0.13282
0.132552
0.132255
0.131933
0.131592
0.131236
0.13087
0.1305
0.130128
0.129761
0.129402
0.129053
0.128719
0.128401
0.128101
0.127819
0.127557
0.127313
0.127087
0.126879
0.126685
0.126504
0.126334
0.126173
0.126017
0.125864
0.125712
0.125557
0.125399
0.125234
0.125061
0.12488
0.124689
0.124487
0.124275
0.124054
0.123822
0.123582
0.123335
0.123081
0.122822
0.122559
0.122292
0.122023
0.121753
0.121481
0.121209
0.120935
0.12066
0.120383
0.120104
0.119821
0.119533
0.119241
0.118942
0.118636
0.118322
0.118
0.117668
0.117327
0.116977
0.116617
0.116248
0.11587
0.115485
0.115093
0.114696
0.114295
0.113891
0.113487
0.113084
0.112683
0.112287
0.111897
0.111514
0.111141
0.110779
0.110429
0.110091
0.109767
0.109458
0.109164
0.108884
0.10862
0.108372
0.108138
0.107919
0.107714
0.107522
0.107344
0.107178
0.107024
0.106882
0.106749
0.106627
0.106514
0.10641
0.106315
0.106227
0.106147
0.106074
0.106007
0.105947
0.105892
0.105842
0.105798
0.105757
0.105721
0.105689
0.105661
0.105637
0.105618
0.105602
0.105592
0.105587
0.105587
0.105592
0.105604
0.105621
0.105644
0.105673
0.105706
0.105744
0.105785
0.10583
0.105875
0.105921
0.105965
0.106006
0.106042
0.106071
0.10609
0.106098
0.106093
0.106071
0.106032
0.105974
0.105896
0.105795
0.105672
0.105527
0.10536
0.105172
0.104965
0.104739
0.104499
0.104245
0.103982
0.103712
0.103438
0.103164
0.102892
0.102626
0.102367
0.102117
0.101879
0.101655
0.101445
0.10125
0.101072
0.10091
0.100765
0.100637
0.100526
0.100432
0.100353
0.100291
0.100243
0.100209
0.100189
0.100181
0.100185
0.1002
0.100225
0.10026
0.100304
0.100356
0.100416
0.100484
0.100558
0.100638
0.100724
0.100816
0.100911
0.10101
0.101113
0.101218
0.101325
0.101434
0.101544
0.101654
0.101765
0.101876
0.101986
0.102094
0.102201
0.102305
0.102405
0.102501
0.102591
0.102673
0.102747
0.102811
0.102864
0.102904
0.10293
0.10294
0.102935
0.102912
0.102872
0.102814
0.102738
0.102645
0.102534
0.102408
0.102267
0.102114
0.10195
0.101777
0.101599
0.101417
0.101235
0.101054
0.100877
0.100706
0.100544
0.100391
0.10025
0.100121
0.100006
0.0999042
0.0998173
0.0997449
0.0996871
0.0996436
0.0996143
0.0995986
0.099596
0.0996059
0.0996276
0.0996602
0.099703
0.0997549
0.0998148
0.0998815
0.0999539
0.10003
0.10011
0.10019
0.100271
0.10035
0.100426
0.100498
0.100565
0.100626
0.10068
0.100728
0.100768
0.1008
0.100825
0.100842
0.100842
0.1
0.100007
0.100072
0.100119
0.100104
0.100015
0.0998622
0.0996638
0.0994437
0.0992285
0.0990444
0.0989124
0.0988425
0.0988308
0.0988603
0.098906
0.0989418
0.0989466
0.0989083
0.0988249
0.098703
0.0985543
0.098393
0.0982327
0.0980854
0.0979613
0.0978681
0.0978122
0.097798
0.0978285
0.0979047
0.0980265
0.0981924
0.0984005
0.0986484
0.0989343
0.0992564
0.099613
0.100002
0.100419
0.10086
0.101317
0.101783
0.102247
0.102699
0.103132
0.103539
0.103916
0.104262
0.10458
0.104875
0.105154
0.105425
0.105695
0.105973
0.106262
0.106569
0.106895
0.107242
0.107609
0.107995
0.108398
0.108815
0.109243
0.109677
0.110114
0.110549
0.110977
0.111395
0.1118
0.112188
0.112558
0.112909
0.113243
0.113561
0.113867
0.114165
0.114459
0.114756
0.115061
0.115379
0.115716
0.116076
0.116463
0.116879
0.117325
0.117801
0.118306
0.118838
0.119393
0.119968
0.120559
0.121161
0.12177
0.122381
0.12299
0.123592
0.124184
0.124763
0.125324
0.125866
0.126387
0.126884
0.127356
0.127802
0.128222
0.128615
0.128983
0.129326
0.129645
0.129943
0.130222
0.130484
0.130731
0.130966
0.131191
0.131408
0.13162
0.131826
0.132029
0.132228
0.132424
0.132614
0.132798
0.132974
0.133138
0.133288
0.13342
0.13353
0.133615
0.133672
0.133696
0.133686
0.133639
0.133553
0.133428
0.133265
0.133064
0.132828
0.13256
0.132263
0.131942
0.131601
0.131246
0.13088
0.130509
0.130138
0.129771
0.129412
0.129064
0.128729
0.128411
0.128111
0.127829
0.127566
0.127322
0.127096
0.126887
0.126693
0.126512
0.126342
0.12618
0.126024
0.12587
0.125718
0.125563
0.125404
0.125238
0.125065
0.124884
0.124692
0.12449
0.124278
0.124055
0.123824
0.123583
0.123335
0.123081
0.122821
0.122558
0.122291
0.122021
0.121751
0.121479
0.121206
0.120932
0.120657
0.120379
0.1201
0.119816
0.119529
0.119236
0.118937
0.118631
0.118318
0.117995
0.117664
0.117323
0.116973
0.116613
0.116244
0.115867
0.115482
0.11509
0.114693
0.114292
0.113889
0.113485
0.113082
0.112681
0.112285
0.111895
0.111513
0.11114
0.110778
0.110428
0.110091
0.109767
0.109458
0.109164
0.108885
0.108621
0.108372
0.108139
0.10792
0.107715
0.107523
0.107345
0.10718
0.107026
0.106883
0.106751
0.106628
0.106515
0.106412
0.106316
0.106228
0.106148
0.106075
0.106009
0.105948
0.105894
0.105844
0.105799
0.105759
0.105723
0.105691
0.105663
0.105639
0.105619
0.105604
0.105593
0.105588
0.105588
0.105593
0.105604
0.105621
0.105644
0.105673
0.105706
0.105744
0.105785
0.105829
0.105874
0.10592
0.105964
0.106004
0.10604
0.106069
0.106088
0.106096
0.10609
0.106069
0.10603
0.105972
0.105893
0.105792
0.10567
0.105525
0.105358
0.10517
0.104962
0.104737
0.104496
0.104243
0.103979
0.103709
0.103436
0.103162
0.10289
0.102623
0.102364
0.102115
0.101877
0.101653
0.101443
0.101248
0.10107
0.100908
0.100763
0.100635
0.100524
0.10043
0.100351
0.100289
0.100241
0.100207
0.100187
0.100179
0.100183
0.100198
0.100223
0.100258
0.100302
0.100355
0.100415
0.100482
0.100556
0.100637
0.100723
0.100814
0.10091
0.101009
0.101112
0.101217
0.101324
0.101433
0.101543
0.101653
0.101764
0.101875
0.101985
0.102094
0.102201
0.102305
0.102405
0.102501
0.10259
0.102673
0.102747
0.102811
0.102863
0.102903
0.102929
0.10294
0.102935
0.102912
0.102872
0.102814
0.102738
0.102645
0.102535
0.102409
0.102268
0.102115
0.101952
0.101779
0.101601
0.10142
0.101238
0.101057
0.100881
0.10071
0.100548
0.100396
0.100254
0.100126
0.10001
0.0999092
0.0998222
0.0997498
0.0996919
0.0996484
0.0996189
0.0996031
0.0996003
0.09961
0.0996315
0.0996639
0.0997064
0.099758
0.0998176
0.0998841
0.0999561
0.100032
0.100111
0.100192
0.100272
0.100351
0.100426
0.100498
0.100565
0.100626
0.10068
0.100727
0.100767
0.1008
0.100824
0.100841
0.100841
0.1
0.100003
0.100064
0.100107
0.10009
0.0999996
0.099846
0.0996476
0.0994279
0.0992134
0.0990305
0.0988999
0.0988315
0.0988209
0.0988509
0.0988965
0.098932
0.0989365
0.0988984
0.0988157
0.098695
0.0985481
0.0983886
0.0982303
0.098085
0.0979625
0.0978708
0.0978161
0.0978028
0.0978339
0.0979106
0.0980326
0.0981986
0.0984065
0.0986542
0.0989398
0.0992614
0.0996174
0.100005
0.100421
0.100861
0.101317
0.10178
0.102242
0.102692
0.103123
0.103528
0.103902
0.104247
0.104563
0.104857
0.105135
0.105405
0.105675
0.105951
0.106241
0.106547
0.106873
0.10722
0.107587
0.107974
0.108377
0.108795
0.109224
0.109659
0.110097
0.110532
0.110961
0.11138
0.111786
0.112174
0.112546
0.112898
0.113233
0.113553
0.113861
0.11416
0.114457
0.114756
0.115063
0.115384
0.115723
0.116086
0.116475
0.116893
0.117342
0.11782
0.118327
0.118861
0.119418
0.119995
0.120587
0.12119
0.1218
0.122412
0.123021
0.123623
0.124216
0.124795
0.125356
0.125899
0.126419
0.126916
0.127388
0.127834
0.128254
0.128648
0.129015
0.129358
0.129678
0.129977
0.130256
0.130517
0.130765
0.131
0.131225
0.131443
0.131654
0.13186
0.132063
0.132262
0.132457
0.132647
0.13283
0.133005
0.133168
0.133317
0.133449
0.133558
0.133643
0.133698
0.133722
0.133711
0.133664
0.133578
0.133453
0.133289
0.133089
0.132853
0.132586
0.132289
0.131969
0.131629
0.131274
0.130909
0.130539
0.130168
0.129802
0.129442
0.129094
0.12876
0.128442
0.128141
0.127859
0.127595
0.127351
0.127124
0.126913
0.126718
0.126536
0.126365
0.126201
0.126044
0.125889
0.125735
0.125579
0.125419
0.125252
0.125078
0.124895
0.124702
0.124498
0.124285
0.124061
0.123828
0.123586
0.123337
0.123081
0.12282
0.122554
0.122286
0.122016
0.121744
0.12147
0.121196
0.120922
0.120646
0.120368
0.120087
0.119804
0.119516
0.119223
0.118924
0.118618
0.118304
0.117982
0.117651
0.11731
0.11696
0.116601
0.116233
0.115856
0.115471
0.115081
0.114684
0.114284
0.113881
0.113478
0.113075
0.112676
0.11228
0.111891
0.11151
0.111138
0.110776
0.110427
0.11009
0.109767
0.109458
0.109165
0.108886
0.108623
0.108374
0.108141
0.107922
0.107718
0.107527
0.107349
0.107183
0.107029
0.106886
0.106754
0.106632
0.106519
0.106416
0.10632
0.106233
0.106153
0.10608
0.106013
0.105953
0.105898
0.105849
0.105804
0.105764
0.105728
0.105695
0.105667
0.105643
0.105623
0.105607
0.105597
0.105591
0.10559
0.105595
0.105606
0.105623
0.105645
0.105673
0.105705
0.105742
0.105783
0.105826
0.105871
0.105916
0.105959
0.106
0.106035
0.106063
0.106081
0.106089
0.106083
0.106061
0.106022
0.105963
0.105884
0.105784
0.105661
0.105516
0.105349
0.105161
0.104953
0.104728
0.104488
0.104234
0.103971
0.103702
0.103428
0.103154
0.102883
0.102616
0.102357
0.102108
0.101871
0.101647
0.101437
0.101242
0.101064
0.100902
0.100757
0.100629
0.100518
0.100424
0.100346
0.100283
0.100235
0.100202
0.100181
0.100174
0.100178
0.100193
0.100218
0.100253
0.100297
0.10035
0.10041
0.100478
0.100552
0.100633
0.100719
0.10081
0.100906
0.101005
0.101108
0.101213
0.101321
0.10143
0.10154
0.101651
0.101762
0.101873
0.101983
0.102092
0.102199
0.102303
0.102404
0.102499
0.102589
0.102671
0.102745
0.102809
0.102862
0.102902
0.102928
0.102939
0.102933
0.102911
0.102871
0.102814
0.102739
0.102646
0.102536
0.102411
0.102272
0.102119
0.101957
0.101786
0.101609
0.101428
0.101247
0.101068
0.100892
0.100722
0.100561
0.100409
0.100268
0.10014
0.100025
0.099924
0.0998371
0.0997646
0.0997065
0.0996627
0.0996328
0.0996165
0.0996132
0.0996223
0.099643
0.0996747
0.0997165
0.0997673
0.0998261
0.0998917
0.0999629
0.100038
0.100116
0.100196
0.100275
0.100353
0.100428
0.100499
0.100565
0.100625
0.100678
0.100725
0.100765
0.100797
0.100821
0.100838
0.100838
0.1
0.099997
0.100051
0.100088
0.100066
0.0999736
0.0998192
0.0996207
0.0994016
0.0991884
0.0990074
0.0988793
0.0988133
0.0988044
0.0988353
0.0988809
0.0989158
0.0989199
0.098882
0.0988004
0.0986818
0.0985376
0.0983814
0.0982264
0.0980842
0.0979646
0.0978752
0.0978224
0.0978106
0.0978428
0.0979201
0.0980425
0.0982086
0.0984165
0.0986639
0.0989489
0.0992698
0.0996246
0.100011
0.100425
0.100863
0.101316
0.101776
0.102234
0.102681
0.103108
0.103509
0.10388
0.104221
0.104535
0.104827
0.105103
0.105371
0.10564
0.105916
0.106204
0.106511
0.106837
0.107184
0.107551
0.107939
0.108343
0.108762
0.109192
0.109628
0.110067
0.110504
0.110935
0.111355
0.111762
0.112153
0.112525
0.11288
0.113218
0.11354
0.11385
0.114153
0.114453
0.114755
0.115066
0.115391
0.115735
0.116102
0.116496
0.116918
0.11737
0.117852
0.118363
0.118899
0.119459
0.120038
0.120633
0.121238
0.121849
0.122462
0.123072
0.123676
0.124269
0.124848
0.12541
0.125952
0.126473
0.12697
0.127442
0.127888
0.128308
0.128702
0.12907
0.129413
0.129733
0.130032
0.130311
0.130573
0.130821
0.131057
0.131282
0.131499
0.131711
0.131917
0.132119
0.132318
0.132512
0.132701
0.132883
0.133057
0.133219
0.133367
0.133497
0.133605
0.133688
0.133743
0.133765
0.133754
0.133705
0.133619
0.133494
0.13333
0.13313
0.132895
0.132628
0.132333
0.132014
0.131675
0.131321
0.130957
0.130588
0.130218
0.129852
0.129494
0.129146
0.128811
0.128493
0.128191
0.127908
0.127644
0.127397
0.127169
0.126957
0.12676
0.126576
0.126402
0.126237
0.126077
0.125921
0.125764
0.125606
0.125444
0.125275
0.125098
0.124913
0.124718
0.124512
0.124296
0.12407
0.123835
0.123591
0.123339
0.12308
0.122817
0.122549
0.122279
0.122006
0.121732
0.121457
0.121181
0.120905
0.120627
0.120348
0.120067
0.119783
0.119495
0.119201
0.118902
0.118596
0.118282
0.11796
0.11763
0.117289
0.11694
0.116581
0.116214
0.115838
0.115454
0.115064
0.114669
0.11427
0.113868
0.113466
0.113065
0.112666
0.112272
0.111884
0.111504
0.111133
0.110773
0.110424
0.110089
0.109767
0.109459
0.109166
0.108888
0.108625
0.108378
0.108145
0.107927
0.107722
0.107532
0.107354
0.107189
0.107035
0.106893
0.106761
0.106639
0.106526
0.106422
0.106327
0.10624
0.10616
0.106087
0.106021
0.10596
0.105906
0.105856
0.105812
0.105771
0.105735
0.105703
0.105675
0.10565
0.10563
0.105614
0.105603
0.105596
0.105595
0.105599
0.105609
0.105625
0.105646
0.105673
0.105705
0.105741
0.10578
0.105823
0.105866
0.10591
0.105952
0.105992
0.106026
0.106053
0.106071
0.106077
0.10607
0.106048
0.106008
0.105949
0.10587
0.105769
0.105646
0.105501
0.105334
0.105147
0.104939
0.104714
0.104474
0.104221
0.103958
0.103689
0.103416
0.103142
0.102871
0.102605
0.102346
0.102097
0.10186
0.101636
0.101426
0.101232
0.101054
0.100892
0.100748
0.10062
0.100509
0.100415
0.100337
0.100274
0.100226
0.100192
0.100172
0.100165
0.100169
0.100184
0.10021
0.100245
0.100289
0.100342
0.100402
0.10047
0.100545
0.100625
0.100712
0.100804
0.100899
0.100999
0.101102
0.101208
0.101316
0.101425
0.101536
0.101647
0.101759
0.10187
0.10198
0.10209
0.102197
0.102301
0.102401
0.102497
0.102587
0.102669
0.102743
0.102807
0.102859
0.102899
0.102925
0.102936
0.102931
0.102909
0.10287
0.102814
0.102739
0.102647
0.102539
0.102415
0.102277
0.102126
0.101965
0.101796
0.101621
0.101442
0.101263
0.101085
0.100911
0.100742
0.100582
0.100431
0.100292
0.100164
0.10005
0.0999486
0.0998617
0.0997891
0.0997307
0.0996863
0.0996558
0.0996387
0.0996345
0.0996425
0.0996622
0.0996927
0.0997332
0.0997826
0.09984
0.0999043
0.099974
0.100048
0.100125
0.100203
0.100281
0.100357
0.100431
0.1005
0.100565
0.100624
0.100676
0.100722
0.100761
0.100792
0.100816
0.100833
0.100833
0.1
0.0999883
0.100032
0.100061
0.100033
0.0999375
0.0997819
0.0995833
0.0993651
0.0991537
0.0989755
0.0988507
0.098788
0.0987816
0.0988137
0.0988592
0.0988934
0.0988968
0.0988592
0.0987792
0.0986635
0.0985232
0.0983714
0.0982209
0.0980831
0.0979674
0.0978814
0.0978312
0.0978215
0.0978551
0.0979334
0.0980563
0.0982225
0.0984302
0.0986772
0.0989615
0.0992812
0.0996346
0.100019
0.100431
0.100865
0.101314
0.10177
0.102223
0.102664
0.103086
0.103482
0.103849
0.104186
0.104496
0.104784
0.105058
0.105324
0.105591
0.105866
0.106154
0.10646
0.106786
0.107133
0.107502
0.10789
0.108296
0.108716
0.109148
0.109586
0.110027
0.110466
0.110898
0.111321
0.11173
0.112123
0.112498
0.112855
0.113196
0.113521
0.113835
0.114142
0.114447
0.114755
0.115071
0.115402
0.115752
0.116124
0.116524
0.116952
0.11741
0.117897
0.118412
0.118953
0.119517
0.120099
0.120696
0.121304
0.121917
0.122532
0.123143
0.123748
0.124342
0.124921
0.125484
0.126027
0.126548
0.127045
0.127517
0.127963
0.128383
0.128777
0.129145
0.129489
0.12981
0.130109
0.130389
0.130652
0.1309
0.131136
0.131361
0.131579
0.13179
0.131996
0.132198
0.132396
0.132589
0.132777
0.132958
0.13313
0.133291
0.133436
0.133564
0.133671
0.133752
0.133805
0.133826
0.133813
0.133763
0.133676
0.133551
0.133388
0.133188
0.132954
0.132688
0.132394
0.132076
0.131739
0.131386
0.131024
0.130657
0.130288
0.129923
0.129565
0.129217
0.128883
0.128564
0.128262
0.127977
0.127711
0.127463
0.127232
0.127018
0.126819
0.126632
0.126455
0.126287
0.126125
0.125965
0.125805
0.125644
0.125479
0.125307
0.125128
0.124939
0.124741
0.124532
0.124313
0.124084
0.123845
0.123597
0.123342
0.12308
0.122813
0.122542
0.122269
0.121993
0.121716
0.121438
0.12116
0.120882
0.120602
0.120322
0.120039
0.119754
0.119465
0.119171
0.118872
0.118566
0.118252
0.11793
0.1176
0.11726
0.116912
0.116554
0.116187
0.115813
0.11543
0.115042
0.114648
0.11425
0.11385
0.11345
0.11305
0.112653
0.112261
0.111874
0.111496
0.111126
0.110768
0.110421
0.110086
0.109766
0.109459
0.109167
0.108891
0.108629
0.108382
0.10815
0.107933
0.107729
0.107539
0.107362
0.107197
0.107043
0.106901
0.106769
0.106647
0.106535
0.106431
0.106336
0.106249
0.106169
0.106097
0.106031
0.105971
0.105916
0.105867
0.105822
0.105782
0.105746
0.105713
0.105685
0.10566
0.105639
0.105623
0.105611
0.105603
0.105601
0.105605
0.105613
0.105628
0.105648
0.105673
0.105704
0.105738
0.105776
0.105817
0.105859
0.105901
0.105942
0.10598
0.106013
0.106039
0.106056
0.106061
0.106053
0.10603
0.10599
0.10593
0.10585
0.105749
0.105626
0.105481
0.105314
0.105126
0.104919
0.104695
0.104455
0.104202
0.10394
0.103671
0.103398
0.103125
0.102854
0.102589
0.102331
0.102082
0.101846
0.101622
0.101413
0.101219
0.101041
0.100879
0.100735
0.100607
0.100496
0.100402
0.100324
0.100261
0.100213
0.10018
0.10016
0.100152
0.100156
0.100172
0.100198
0.100233
0.100277
0.10033
0.100391
0.100459
0.100534
0.100616
0.100702
0.100794
0.100891
0.100991
0.101094
0.1012
0.101309
0.101419
0.10153
0.101641
0.101753
0.101865
0.101976
0.102086
0.102193
0.102298
0.102398
0.102494
0.102583
0.102666
0.102739
0.102803
0.102856
0.102896
0.102922
0.102933
0.102928
0.102907
0.102869
0.102813
0.10274
0.102649
0.102543
0.102421
0.102285
0.102136
0.101978
0.101811
0.101638
0.101462
0.101284
0.101109
0.100937
0.10077
0.100612
0.100462
0.100324
0.100197
0.100083
0.0999826
0.0998958
0.0998229
0.0997641
0.0997191
0.0996877
0.0996695
0.099664
0.0996706
0.0996887
0.0997176
0.0997562
0.0998039
0.0998594
0.0999216
0.0999894
0.100061
0.100136
0.100212
0.100288
0.100362
0.100434
0.100502
0.100565
0.100622
0.100673
0.100718
0.100755
0.100786
0.100809
0.100825
0.100825
0.1
0.0999771
0.100009
0.100026
0.0999907
0.0998915
0.0997343
0.0995357
0.0993185
0.0991095
0.0989349
0.0988144
0.0987559
0.0987527
0.0987862
0.0988316
0.0988648
0.0988674
0.0988302
0.0987523
0.0986402
0.0985048
0.0983587
0.098214
0.0980817
0.0979708
0.097889
0.0978423
0.0978351
0.0978705
0.09795
0.0980736
0.09824
0.0984475
0.0986939
0.0989773
0.0992957
0.0996471
0.100029
0.100438
0.100867
0.101311
0.101761
0.102208
0.102643
0.103058
0.103447
0.103808
0.10414
0.104446
0.10473
0.105001
0.105265
0.10553
0.105803
0.10609
0.106395
0.106721
0.107069
0.107438
0.107828
0.108236
0.108658
0.109092
0.109532
0.109976
0.110417
0.110852
0.111277
0.111689
0.112084
0.112463
0.112823
0.113168
0.113498
0.113817
0.114129
0.11444
0.114754
0.115078
0.115415
0.115772
0.116153
0.11656
0.116995
0.11746
0.117953
0.118475
0.119021
0.11959
0.120177
0.120778
0.121388
0.122004
0.122621
0.123234
0.12384
0.124435
0.125016
0.125579
0.126122
0.126643
0.127141
0.127613
0.128059
0.12848
0.128874
0.129243
0.129587
0.129908
0.130208
0.130489
0.130752
0.131001
0.131238
0.131464
0.131682
0.131893
0.132099
0.1323
0.132497
0.132689
0.132875
0.133054
0.133224
0.133382
0.133526
0.133651
0.133755
0.133834
0.133885
0.133904
0.133889
0.133839
0.133751
0.133625
0.133462
0.133263
0.13303
0.132765
0.132473
0.132157
0.131821
0.131471
0.131111
0.130745
0.130378
0.130014
0.129657
0.12931
0.128975
0.128655
0.128352
0.128066
0.127798
0.127547
0.127314
0.127097
0.126894
0.126704
0.126524
0.126352
0.126185
0.126022
0.125859
0.125693
0.125524
0.125348
0.125165
0.124973
0.124771
0.124558
0.124335
0.124101
0.123858
0.123606
0.123347
0.123081
0.122809
0.122534
0.122256
0.121977
0.121696
0.121415
0.121134
0.120853
0.120571
0.120289
0.120004
0.119718
0.119428
0.119133
0.118833
0.118527
0.118213
0.117892
0.117562
0.117223
0.116876
0.116519
0.116154
0.11578
0.1154
0.115013
0.114621
0.114225
0.113827
0.113429
0.113031
0.112636
0.112246
0.111862
0.111485
0.111118
0.110761
0.110416
0.110083
0.109764
0.109459
0.109169
0.108894
0.108633
0.108388
0.108157
0.10794
0.107737
0.107548
0.107371
0.107206
0.107053
0.106912
0.10678
0.106659
0.106546
0.106443
0.106348
0.106261
0.106182
0.10611
0.106044
0.105984
0.10593
0.105881
0.105836
0.105796
0.105759
0.105727
0.105698
0.105672
0.105651
0.105634
0.105621
0.105612
0.105609
0.105611
0.105618
0.105631
0.10565
0.105673
0.105702
0.105734
0.105771
0.10581
0.10585
0.10589
0.105929
0.105965
0.105997
0.106021
0.106036
0.10604
0.106031
0.106007
0.105966
0.105905
0.105825
0.105724
0.1056
0.105455
0.105288
0.105101
0.104894
0.104669
0.10443
0.104178
0.103916
0.103648
0.103376
0.103104
0.102833
0.102569
0.102311
0.102063
0.101827
0.101604
0.101395
0.101201
0.101024
0.100863
0.100718
0.100591
0.10048
0.100386
0.100308
0.100245
0.100198
0.100164
0.100144
0.100136
0.100141
0.100156
0.100182
0.100218
0.100263
0.100316
0.100377
0.100446
0.100521
0.100603
0.10069
0.100782
0.100879
0.10098
0.101084
0.10119
0.101299
0.10141
0.101522
0.101634
0.101747
0.101859
0.101971
0.10208
0.102188
0.102293
0.102394
0.102489
0.102579
0.102661
0.102735
0.102798
0.102851
0.102891
0.102917
0.102929
0.102925
0.102904
0.102867
0.102812
0.102741
0.102652
0.102548
0.102428
0.102294
0.102149
0.101993
0.101829
0.101659
0.101486
0.101312
0.101139
0.10097
0.100806
0.100649
0.100502
0.100365
0.100239
0.100126
0.100026
0.099939
0.0998659
0.0998064
0.0997606
0.099728
0.0997084
0.0997013
0.0997061
0.0997223
0.099749
0.0997854
0.0998307
0.0998838
0.0999435
0.100009
0.100078
0.10015
0.100224
0.100297
0.100369
0.100438
0.100504
0.100565
0.10062
0.100669
0.100712
0.100749
0.100778
0.100801
0.100816
0.100816
0.1
0.0999635
0.0999802
0.0999842
0.0999399
0.0998359
0.0996768
0.0994781
0.0992624
0.0990563
0.0988861
0.0987708
0.0987173
0.0987178
0.0987531
0.0987983
0.0988303
0.098832
0.0987952
0.0987198
0.0986122
0.0984827
0.0983433
0.0982056
0.0980799
0.097975
0.0978982
0.0978554
0.0978513
0.0978889
0.0979698
0.0980942
0.0982609
0.0984681
0.0987138
0.098996
0.0993128
0.099662
0.100041
0.100445
0.10087
0.101308
0.101751
0.10219
0.102617
0.103024
0.103406
0.103759
0.104084
0.104385
0.104665
0.104931
0.105192
0.105455
0.105726
0.106012
0.106317
0.106643
0.106991
0.107362
0.107753
0.108163
0.108588
0.109024
0.109468
0.109914
0.110359
0.110797
0.111225
0.11164
0.112039
0.112421
0.112785
0.113134
0.113469
0.113794
0.114113
0.114431
0.114753
0.115085
0.115432
0.115798
0.116187
0.116603
0.117047
0.11752
0.118021
0.11855
0.119103
0.119678
0.12027
0.120875
0.12149
0.122109
0.122729
0.123344
0.123952
0.124548
0.12513
0.125694
0.126238
0.126759
0.127257
0.127729
0.128176
0.128597
0.128992
0.129361
0.129706
0.130028
0.130329
0.13061
0.130875
0.131125
0.131362
0.131589
0.131807
0.132018
0.132224
0.132424
0.13262
0.13281
0.132995
0.133172
0.133339
0.133495
0.133635
0.133758
0.133859
0.133935
0.133983
0.134
0.133983
0.133931
0.133842
0.133716
0.133553
0.133354
0.133122
0.13286
0.132569
0.132256
0.131923
0.131575
0.131217
0.130853
0.130488
0.130126
0.12977
0.129423
0.129088
0.128767
0.128463
0.128175
0.127904
0.127651
0.127414
0.127193
0.126986
0.126792
0.126607
0.126431
0.12626
0.126091
0.125924
0.125754
0.12558
0.1254
0.125212
0.125015
0.124808
0.12459
0.124362
0.124123
0.123875
0.123618
0.123353
0.123082
0.122806
0.122525
0.122243
0.121958
0.121673
0.121388
0.121103
0.120819
0.120534
0.120249
0.119963
0.119674
0.119383
0.119087
0.118787
0.11848
0.118167
0.117846
0.117516
0.117178
0.116832
0.116476
0.116113
0.115741
0.115362
0.114977
0.114588
0.114194
0.113799
0.113402
0.113007
0.112615
0.112227
0.111845
0.111471
0.111106
0.110752
0.110409
0.110079
0.109762
0.109459
0.109171
0.108897
0.108638
0.108394
0.108164
0.107949
0.107747
0.107558
0.107382
0.107218
0.107066
0.106924
0.106793
0.106672
0.10656
0.106457
0.106362
0.106276
0.106197
0.106125
0.106059
0.106
0.105946
0.105897
0.105852
0.105812
0.105775
0.105742
0.105713
0.105687
0.105665
0.105646
0.105632
0.105623
0.105618
0.105618
0.105624
0.105635
0.105652
0.105673
0.105699
0.10573
0.105764
0.1058
0.105838
0.105877
0.105913
0.105947
0.105976
0.105999
0.106012
0.106015
0.106004
0.105979
0.105936
0.105875
0.105794
0.105692
0.105569
0.105423
0.105257
0.105069
0.104863
0.104639
0.1044
0.104149
0.103888
0.10362
0.103349
0.103078
0.102808
0.102544
0.102288
0.102041
0.101805
0.101583
0.101374
0.101181
0.101004
0.100843
0.100699
0.100572
0.100461
0.100367
0.100289
0.100226
0.100179
0.100145
0.100125
0.100118
0.100122
0.100138
0.100164
0.1002
0.100245
0.100299
0.10036
0.100429
0.100505
0.100587
0.100675
0.100768
0.100865
0.100966
0.101071
0.101178
0.101288
0.101399
0.101512
0.101625
0.101738
0.101851
0.101963
0.102074
0.102182
0.102287
0.102388
0.102484
0.102574
0.102656
0.102729
0.102793
0.102845
0.102885
0.102912
0.102924
0.102921
0.102901
0.102865
0.102812
0.102742
0.102656
0.102554
0.102437
0.102306
0.102164
0.102012
0.101851
0.101685
0.101516
0.101345
0.101176
0.101009
0.100848
0.100694
0.100549
0.100414
0.100289
0.100177
0.100078
0.0999908
0.0999174
0.0998573
0.0998103
0.0997764
0.0997551
0.0997461
0.0997488
0.0997625
0.0997867
0.0998204
0.0998628
0.099913
0.0999697
0.100032
0.100098
0.100167
0.100238
0.100308
0.100377
0.100443
0.100506
0.100564
0.100617
0.100665
0.100706
0.10074
0.100768
0.10079
0.100805
0.100805
0.1
0.0999474
0.0999468
0.0999356
0.0998808
0.0997711
0.0996098
0.099411
0.099197
0.0989945
0.0988294
0.0987203
0.0986726
0.0986774
0.0987146
0.0987596
0.0987901
0.0987908
0.0987545
0.098682
0.0985796
0.098457
0.0983254
0.0981957
0.0980776
0.0979796
0.0979085
0.0978704
0.0978698
0.09791
0.0979926
0.0981178
0.0982848
0.0984917
0.0987367
0.0990176
0.0993324
0.0996789
0.100054
0.100454
0.100873
0.101304
0.101739
0.102169
0.102586
0.102984
0.103356
0.103701
0.104019
0.104313
0.104587
0.10485
0.105107
0.105367
0.105637
0.105922
0.106226
0.106552
0.106901
0.107273
0.107667
0.108079
0.108507
0.108946
0.109394
0.109843
0.110291
0.110733
0.111165
0.111583
0.111986
0.112372
0.112741
0.113096
0.113437
0.113769
0.114095
0.114421
0.114752
0.115094
0.11545
0.115827
0.116227
0.116653
0.117107
0.11759
0.1181
0.118638
0.119198
0.11978
0.120378
0.120989
0.121608
0.122231
0.122854
0.123472
0.124082
0.12468
0.125263
0.125828
0.126373
0.126895
0.127393
0.127866
0.128313
0.128734
0.12913
0.1295
0.129846
0.130169