# vtk DataFile Version 3.0
LBM Fluid Grid
ASCII
DATASET STRUCTURED_POINTS
DIMENSIONS 400 150 1
ORIGIN 0 0 0
SPACING 1 1 1
POINT_DATA 60000
SCALARS VelocityMagnitude double 1
LOOKUP_TABLE default
0.1
0.100281
0.100569
0.100813
0.100972
0.101028
0.100989
0.100886
0.10076
0.100643
0.100557
0.100503
0.100476
0.100461
0.100448
0.100431
0.100413
0.100399
0.100399
0.100422
0.100475
0.10056
0.100676
0.10082
0.100987
0.101171
0.101369
0.101573
0.101779
0.101983
0.102178
0.10236
0.102525
0.102673
0.102804
0.102921
0.10303
0.103136
0.103247
0.103369
0.103506
0.103662
0.10384
0.10404
0.104261
0.104504
0.104768
0.105051
0.105353
0.105672
0.106005
0.10635
0.106704
0.107063
0.107422
0.107778
0.108127
0.108466
0.108792
0.109106
0.109408
0.109698
0.109979
0.110256
0.11053
0.110806
0.111087
0.111377
0.111679
0.111994
0.112325
0.112672
0.113038
0.113421
0.113821
0.114238
0.11467
0.115117
0.115576
0.116046
0.116524
0.117008
0.117495
0.117983
0.11847
0.118954
0.119432
0.119903
0.120366
0.120821
0.121266
0.121703
0.122132
0.122555
0.122973
0.123388
0.123802
0.124218
0.124636
0.125058
0.125486
0.125922
0.126365
0.126815
0.127274
0.127739
0.128211
0.128687
0.129166
0.129646
0.130125
0.130599
0.131068
0.131526
0.131974
0.132406
0.132822
0.133219
0.133596
0.133951
0.134283
0.134591
0.134876
0.135138
0.135377
0.135596
0.135795
0.135977
0.136144
0.136297
0.13644
0.136575
0.136703
0.136828
0.136951
0.137075
0.137199
0.137326
0.137457
0.137591
0.13773
0.137872
0.138018
0.138166
0.138316
0.138467
0.138617
0.138764
0.138909
0.139048
0.13918
0.139305
0.13942
0.139525
0.139619
0.1397
0.13977
0.139826
0.139869
0.139899
0.139917
0.139924
0.139919
0.139904
0.13988
0.139848
0.139809
0.139764
0.139714
0.139661
0.139604
0.139544
0.139483
0.13942
0.139355
0.139287
0.139217
0.139144
0.139066
0.138984
0.138894
0.138797
0.138691
0.138574
0.138446
0.138304
0.138147
0.137975
0.137786
0.13758
0.137356
0.137113
0.136852
0.136573
0.136276
0.135963
0.135633
0.135288
0.13493
0.13456
0.13418
0.133791
0.133395
0.132995
0.132591
0.132185
0.131779
0.131374
0.130972
0.130574
0.13018
0.12979
0.129406
0.129028
0.128655
0.128287
0.127924
0.127566
0.127212
0.12686
0.126512
0.126165
0.12582
0.125475
0.125132
0.124788
0.124445
0.124102
0.12376
0.123419
0.123079
0.122741
0.122407
0.122076
0.121749
0.121428
0.121113
0.120805
0.120504
0.12021
0.119925
0.119647
0.119377
0.119114
0.118857
0.118607
0.118361
0.11812
0.117881
0.117644
0.117408
0.117172
0.116935
0.116696
0.116455
0.116211
0.115964
0.115714
0.115461
0.115206
0.114949
0.11469
0.114432
0.114173
0.113916
0.11366
0.113407
0.113156
0.112909
0.112666
0.112426
0.112191
0.111959
0.11173
0.111505
0.111283
0.111063
0.110845
0.110629
0.110415
0.110202
0.109991
0.109781
0.109573
0.109367
0.109164
0.108963
0.108767
0.108574
0.108386
0.108203
0.108026
0.107855
0.10769
0.107531
0.10738
0.107234
0.107096
0.106963
0.106836
0.106715
0.1066
0.106489
0.106383
0.106282
0.106184
0.106091
0.106001
0.105915
0.105833
0.105755
0.10568
0.10561
0.105544
0.105482
0.105425
0.105372
0.105324
0.10528
0.10524
0.105204
0.105172
0.105143
0.105117
0.105094
0.105072
0.105051
0.105031
0.105011
0.10499
0.104968
0.104944
0.104918
0.104889
0.104857
0.104822
0.104784
0.104742
0.104696
0.104646
0.104592
0.104534
0.104471
0.104405
0.104334
0.104259
0.104181
0.104099
0.104013
0.103924
0.103831
0.103737
0.10364
0.103541
0.103442
0.103341
0.103241
0.103142
0.103044
0.102949
0.102856
0.102767
0.102681
0.102601
0.102525
0.102455
0.102392
0.102334
0.102283
0.102239
0.102201
0.10217
0.102146
0.102129
0.102117
0.102112
0.102112
0.102118
0.102129
0.102145
0.102164
0.102188
0.102214
0.102244
0.102276
0.102309
0.102344
0.10238
0.102416
0.102453
0.102489
0.102524
0.102558
0.10259
0.102621
0.10265
0.102677
0.102702
0.102723
0.102723
0.1
0.100282
0.10057
0.100815
0.100975
0.101031
0.100992
0.100889
0.100762
0.100645
0.100558
0.100505
0.100477
0.100463
0.10045
0.100433
0.100415
0.100401
0.100401
0.100424
0.100476
0.100561
0.100677
0.100821
0.100987
0.101172
0.101369
0.101574
0.10178
0.101983
0.102178
0.102361
0.102526
0.102674
0.102805
0.102923
0.103031
0.103137
0.103248
0.10337
0.103507
0.103664
0.103841
0.104041
0.104263
0.104506
0.10477
0.105054
0.105356
0.105674
0.106008
0.106353
0.106707
0.107066
0.107426
0.107782
0.108131
0.10847
0.108797
0.109111
0.109412
0.109703
0.109984
0.110261
0.110535
0.110811
0.111092
0.111381
0.111683
0.111998
0.112329
0.112676
0.113041
0.113424
0.113823
0.11424
0.114672
0.115119
0.115578
0.116047
0.116524
0.117008
0.117495
0.117983
0.11847
0.118953
0.119431
0.119902
0.120365
0.120819
0.121264
0.121701
0.122129
0.122552
0.12297
0.123384
0.123798
0.124213
0.124631
0.125053
0.125481
0.125916
0.126358
0.126809
0.127267
0.127732
0.128204
0.12868
0.129159
0.129639
0.130117
0.130592
0.13106
0.131519
0.131966
0.132399
0.132815
0.133213
0.133589
0.133944
0.134276
0.134585
0.13487
0.135131
0.135371
0.13559
0.135789
0.135971
0.136137
0.136291
0.136434
0.136568
0.136697
0.136822
0.136945
0.137068
0.137192
0.137319
0.13745
0.137584
0.137723
0.137865
0.138011
0.138159
0.13831
0.13846
0.13861
0.138758
0.138903
0.139042
0.139174
0.139299
0.139415
0.13952
0.139613
0.139695
0.139764
0.139821
0.139864
0.139894
0.139912
0.139919
0.139914
0.139899
0.139875
0.139843
0.139804
0.139759
0.139709
0.139655
0.139599
0.139539
0.139478
0.139415
0.13935
0.139282
0.139212
0.139139
0.139062
0.138979
0.13889
0.138793
0.138687
0.138571
0.138442
0.1383
0.138144
0.137972
0.137783
0.137576
0.137352
0.13711
0.136849
0.13657
0.136273
0.135959
0.135629
0.135285
0.134927
0.134556
0.134176
0.133787
0.133391
0.132991
0.132586
0.132181
0.131775
0.13137
0.130968
0.13057
0.130176
0.129787
0.129403
0.129024
0.128651
0.128284
0.127921
0.127563
0.127208
0.126857
0.126509
0.126162
0.125817
0.125472
0.125129
0.124785
0.124442
0.124099
0.123757
0.123416
0.123076
0.122739
0.122404
0.122073
0.121747
0.121426
0.121111
0.120803
0.120502
0.120208
0.119923
0.119645
0.119375
0.119112
0.118856
0.118605
0.11836
0.118119
0.11788
0.117643
0.117408
0.117172
0.116935
0.116696
0.116454
0.11621
0.115963
0.115714
0.115461
0.115206
0.114949
0.114691
0.114432
0.114173
0.113916
0.11366
0.113407
0.113157
0.11291
0.112666
0.112427
0.112191
0.111959
0.111731
0.111506
0.111283
0.111064
0.110846
0.11063
0.110416
0.110203
0.109992
0.109782
0.109574
0.109368
0.109164
0.108964
0.108767
0.108575
0.108387
0.108204
0.108026
0.107855
0.10769
0.107532
0.10738
0.107235
0.107096
0.106963
0.106837
0.106716
0.1066
0.106489
0.106383
0.106282
0.106184
0.106091
0.106001
0.105915
0.105833
0.105755
0.10568
0.10561
0.105544
0.105482
0.105425
0.105372
0.105323
0.105279
0.10524
0.105204
0.105172
0.105143
0.105117
0.105093
0.105072
0.105051
0.105031
0.10501
0.104989
0.104967
0.104943
0.104917
0.104889
0.104857
0.104822
0.104784
0.104742
0.104696
0.104646
0.104592
0.104533
0.104471
0.104405
0.104334
0.104259
0.104181
0.104098
0.104012
0.103923
0.103831
0.103736
0.103639
0.103541
0.103441
0.103341
0.103241
0.103141
0.103044
0.102948
0.102855
0.102766
0.10268
0.1026
0.102524
0.102455
0.102391
0.102333
0.102282
0.102238
0.1022
0.10217
0.102145
0.102128
0.102117
0.102111
0.102112
0.102118
0.102129
0.102144
0.102164
0.102188
0.102214
0.102244
0.102276
0.102309
0.102344
0.10238
0.102417
0.102453
0.102489
0.102524
0.102558
0.102591
0.102622
0.102651
0.102678
0.102702
0.102724
0.102724
0.1
0.100281
0.100569
0.100813
0.100972
0.101028
0.100989
0.100886
0.10076
0.100643
0.100557
0.100503
0.100476
0.100461
0.100448
0.100431
0.100413
0.100399
0.100399
0.100422
0.100475
0.10056
0.100676
0.10082
0.100987
0.101171
0.101369
0.101573
0.101779
0.101983
0.102178
0.10236
0.102525
0.102673
0.102804
0.102921
0.10303
0.103136
0.103247
0.103369
0.103506
0.103662
0.10384
0.10404
0.104261
0.104504
0.104768
0.105051
0.105353
0.105672
0.106005
0.10635
0.106704
0.107063
0.107422
0.107778
0.108127
0.108466
0.108792
0.109106
0.109408
0.109698
0.109979
0.110256
0.11053
0.110806
0.111087
0.111377
0.111679
0.111994
0.112325
0.112672
0.113038
0.113421
0.113821
0.114238
0.11467
0.115117
0.115576
0.116046
0.116524
0.117008
0.117495
0.117983
0.11847
0.118954
0.119432
0.119903
0.120366
0.120821
0.121266
0.121703
0.122132
0.122555
0.122973
0.123388
0.123802
0.124218
0.124636
0.125058
0.125486
0.125922
0.126365
0.126815
0.127274
0.127739
0.128211
0.128687
0.129166
0.129646
0.130125
0.130599
0.131068
0.131526
0.131974
0.132406
0.132822
0.133219
0.133596
0.133951
0.134283
0.134591
0.134876
0.135138
0.135377
0.135596
0.135795
0.135977
0.136144
0.136297
0.13644
0.136575
0.136703
0.136828
0.136951
0.137075
0.137199
0.137326
0.137457
0.137591
0.13773
0.137872
0.138018
0.138166
0.138316
0.138467
0.138617
0.138765
0.138909
0.139048
0.13918
0.139305
0.13942
0.139525
0.139619
0.139701
0.13977
0.139826
0.139869
0.1399
0.139918
0.139924
0.139919
0.139904
0.13988
0.139848
0.139809
0.139764
0.139714
0.139661
0.139604
0.139545
0.139483
0.13942
0.139355
0.139287
0.139217
0.139144
0.139067
0.138984
0.138895
0.138798
0.138691
0.138575
0.138446
0.138304
0.138147
0.137975
0.137786
0.13758
0.137356
0.137113
0.136852
0.136573
0.136276
0.135963
0.135633
0.135288
0.13493
0.13456
0.13418
0.133791
0.133395
0.132994
0.13259
0.132185
0.131779
0.131374
0.130972
0.130574
0.130179
0.12979
0.129406
0.129028
0.128655
0.128287
0.127924
0.127566
0.127211
0.12686
0.126511
0.126165
0.125819
0.125475
0.125131
0.124788
0.124445
0.124102
0.12376
0.123418
0.123079
0.122741
0.122406
0.122075
0.121749
0.121428
0.121113
0.120804
0.120503
0.12021
0.119924
0.119647
0.119376
0.119113
0.118857
0.118606
0.118361
0.118119
0.117881
0.117644
0.117408
0.117172
0.116935
0.116696
0.116455
0.11621
0.115963
0.115713
0.115461
0.115206
0.114949
0.11469
0.114432
0.114173
0.113916
0.11366
0.113406
0.113156
0.112909
0.112666
0.112426
0.112191
0.111959
0.11173
0.111505
0.111283
0.111063
0.110845
0.110629
0.110415
0.110202
0.109991
0.109781
0.109573
0.109367
0.109164
0.108964
0.108767
0.108574
0.108386
0.108203
0.108026
0.107855
0.10769
0.107532
0.10738
0.107235
0.107096
0.106963
0.106837
0.106716
0.1066
0.106489
0.106383
0.106282
0.106184
0.106091
0.106001
0.105915
0.105833
0.105755
0.105681
0.10561
0.105544
0.105483
0.105425
0.105372
0.105324
0.10528
0.10524
0.105204
0.105172
0.105144
0.105118
0.105094
0.105072
0.105051
0.105031
0.105011
0.10499
0.104968
0.104944
0.104918
0.104889
0.104857
0.104822
0.104784
0.104742
0.104696
0.104646
0.104592
0.104534
0.104471
0.104405
0.104334
0.10426
0.104181
0.104099
0.104013
0.103924
0.103831
0.103737
0.10364
0.103541
0.103442
0.103342
0.103241
0.103142
0.103044
0.102949
0.102856
0.102767
0.102681
0.102601
0.102525
0.102455
0.102392
0.102334
0.102283
0.102239
0.102201
0.10217
0.102146
0.102129
0.102117
0.102112
0.102112
0.102118
0.102129
0.102145
0.102164
0.102188
0.102214
0.102244
0.102276
0.102309
0.102344
0.10238
0.102416
0.102453
0.102488
0.102524
0.102558
0.10259
0.102621
0.10265
0.102677
0.102702
0.102723
0.102723
0.1
0.100279
0.100565
0.100807
0.100964
0.101019
0.100981
0.10088
0.100755
0.100639
0.100553
0.100499
0.100471
0.100456
0.100443
0.100426
0.100408
0.100394
0.100395
0.100419
0.100472
0.100557
0.100674
0.100818
0.100985
0.10117
0.101367
0.101571
0.101777
0.10198
0.102175
0.102357
0.102522
0.10267
0.102801
0.102918
0.103027
0.103133
0.103244
0.103365
0.103502
0.103658
0.103835
0.104035
0.104256
0.104499
0.104762
0.105045
0.105346
0.105664
0.105996
0.106341
0.106694
0.107052
0.107411
0.107766
0.108114
0.108452
0.108779
0.109092
0.109393
0.109683
0.109965
0.110241
0.110515
0.110792
0.111073
0.111364
0.111666
0.111982
0.112313
0.112662
0.113028
0.113412
0.113813
0.114231
0.114664
0.115112
0.115572
0.116043
0.116521
0.117006
0.117494
0.117983
0.118471
0.118956
0.119434
0.119906
0.12037
0.120825
0.121272
0.12171
0.12214
0.122564
0.122983
0.123399
0.123815
0.124231
0.12465
0.125074
0.125503
0.12594
0.126384
0.126835
0.127294
0.127761
0.128233
0.128709
0.129189
0.129669
0.130148
0.130622
0.13109
0.131549
0.131995
0.132428
0.132843
0.13324
0.133616
0.133971
0.134302
0.13461
0.134895
0.135157
0.135396
0.135615
0.135814
0.135996
0.136163
0.136316
0.136459
0.136594
0.136723
0.136848
0.136972
0.137095
0.13722
0.137347
0.137477
0.137612
0.13775
0.137892
0.138038
0.138186
0.138336
0.138486
0.138636
0.138783
0.138927
0.139066
0.139198
0.139322
0.139437
0.139542
0.139635
0.139717
0.139786
0.139842
0.139885
0.139915
0.139933
0.13994
0.139935
0.13992
0.139896
0.139864
0.139825
0.13978
0.13973
0.139677
0.13962
0.13956
0.139499
0.139435
0.13937
0.139302
0.139232
0.139158
0.13908
0.138997
0.138908
0.13881
0.138704
0.138587
0.138458
0.138315
0.138159
0.137986
0.137797
0.137591
0.137366
0.137124
0.136863
0.136584
0.136287
0.135974
0.135644
0.1353
0.134942
0.134572
0.134192
0.133803
0.133407
0.133006
0.132602
0.132197
0.131791
0.131386
0.130984
0.130585
0.130191
0.129801
0.129417
0.129038
0.128665
0.128297
0.127934
0.127575
0.127221
0.126869
0.12652
0.126173
0.125828
0.125483
0.125139
0.124796
0.124452
0.124109
0.123767
0.123426
0.123086
0.122748
0.122413
0.122082
0.121755
0.121434
0.121119
0.12081
0.120509
0.120215
0.119929
0.119651
0.119381
0.119117
0.118861
0.11861
0.118364
0.118122
0.117883
0.117646
0.11741
0.117173
0.116936
0.116697
0.116455
0.116211
0.115964
0.115713
0.115461
0.115205
0.114948
0.11469
0.114431
0.114172
0.113915
0.113659
0.113405
0.113155
0.112907
0.112664
0.112424
0.112189
0.111957
0.111728
0.111503
0.11128
0.11106
0.110843
0.110627
0.110413
0.1102
0.109989
0.109779
0.109571
0.109365
0.109162
0.108962
0.108765
0.108573
0.108385
0.108202
0.108025
0.107854
0.107689
0.107531
0.107379
0.107234
0.107095
0.106963
0.106836
0.106716
0.1066
0.10649
0.106384
0.106282
0.106185
0.106092
0.106002
0.105916
0.105834
0.105756
0.105682
0.105612
0.105546
0.105484
0.105427
0.105374
0.105326
0.105282
0.105242
0.105206
0.105174
0.105145
0.105119
0.105096
0.105074
0.105053
0.105033
0.105012
0.104991
0.104969
0.104945
0.104919
0.10489
0.104858
0.104823
0.104785
0.104743
0.104697
0.104647
0.104593
0.104534
0.104472
0.104406
0.104335
0.10426
0.104182
0.1041
0.104014
0.103925
0.103833
0.103738
0.103641
0.103543
0.103443
0.103343
0.103244
0.103144
0.103047
0.102951
0.102859
0.102769
0.102684
0.102604
0.102528
0.102458
0.102395
0.102337
0.102286
0.102242
0.102204
0.102173
0.102149
0.102131
0.102119
0.102114
0.102114
0.10212
0.102131
0.102146
0.102165
0.102189
0.102215
0.102244
0.102276
0.102309
0.102344
0.102379
0.102415
0.102452
0.102487
0.102522
0.102556
0.102589
0.102619
0.102648
0.102675
0.102699
0.102721
0.102721
0.1
0.100277
0.100558
0.100796
0.100951
0.101006
0.100969
0.10087
0.100747
0.100632
0.100546
0.100492
0.100463
0.100447
0.100434
0.100417
0.100399
0.100387
0.100388
0.100413
0.100467
0.100553
0.10067
0.100814
0.100981
0.101166
0.101363
0.101567
0.101773
0.101976
0.10217
0.102352
0.102517
0.102664
0.102795
0.102912
0.103021
0.103127
0.103238
0.103359
0.103495
0.103651
0.103828
0.104026
0.104247
0.104489
0.104751
0.105033
0.105334
0.105651
0.105982
0.106326
0.106678
0.107035
0.107392
0.107746
0.108093
0.10843
0.108756
0.109068
0.109369
0.109658
0.10994
0.110216
0.110491
0.110768
0.11105
0.111342
0.111645
0.111962
0.112295
0.112645
0.113012
0.113397
0.1138
0.114219
0.114654
0.115104
0.115565
0.116037
0.116517
0.117004
0.117493
0.117984
0.118473
0.118958
0.119438
0.119912
0.120377
0.120833
0.121281
0.121721
0.122153
0.122579
0.123
0.123418
0.123835
0.124254
0.124675
0.125101
0.125532
0.12597
0.126415
0.126868
0.127329
0.127796
0.128269
0.128746
0.129226
0.129707
0.130185
0.13066
0.131127
0.131586
0.132032
0.132464
0.132878
0.133275
0.13365
0.134004
0.134335
0.134642
0.134926
0.135188
0.135427
0.135646
0.135845
0.136027
0.136194
0.136348
0.136492
0.136627
0.136756
0.136882
0.137005
0.137129
0.137254
0.137381
0.137512
0.137646
0.137784
0.137926
0.138071
0.138219
0.138368
0.138518
0.138667
0.138814
0.138957
0.139095
0.139227
0.139351
0.139465
0.139569
0.139662
0.139743
0.139812
0.139868
0.139911
0.139941
0.139959
0.139966
0.139961
0.139946
0.139922
0.13989
0.139851
0.139807
0.139757
0.139703
0.139646
0.139587
0.139525
0.139461
0.139395
0.139327
0.139256
0.139182
0.139104
0.13902
0.13893
0.138832
0.138724
0.138607
0.138477
0.138335
0.138177
0.138005
0.137815
0.137609
0.137384
0.137141
0.136881
0.136602
0.136305
0.135992
0.135662
0.135318
0.13496
0.134591
0.134211
0.133822
0.133427
0.133026
0.132622
0.132216
0.13181
0.131406
0.131003
0.130604
0.13021
0.12982
0.129435
0.129056
0.128682
0.128314
0.12795
0.127591
0.127236
0.126884
0.126535
0.126187
0.125842
0.125497
0.125153
0.124809
0.124465
0.124122
0.12378
0.123438
0.123098
0.12276
0.122425
0.122093
0.121767
0.121445
0.121129
0.12082
0.120518
0.120224
0.119938
0.119659
0.119388
0.119124
0.118867
0.118615
0.118368
0.118126
0.117886
0.117649
0.117412
0.117175
0.116937
0.116698
0.116456
0.116211
0.115964
0.115713
0.11546
0.115205
0.114947
0.114689
0.11443
0.114171
0.113913
0.113657
0.113403
0.113152
0.112905
0.112661
0.112421
0.112185
0.111953
0.111724
0.111499
0.111277
0.111057
0.110839
0.110623
0.110409
0.110196
0.109985
0.109775
0.109568
0.109362
0.109159
0.108959
0.108762
0.10857
0.108382
0.1082
0.108023
0.107852
0.107688
0.10753
0.107378
0.107233
0.107095
0.106962
0.106836
0.106715
0.1066
0.10649
0.106384
0.106283
0.106186
0.106093
0.106004
0.105918
0.105836
0.105758
0.105684
0.105614
0.105548
0.105487
0.10543
0.105377
0.105329
0.105285
0.105245
0.105209
0.105177
0.105148
0.105122
0.105098
0.105076
0.105055
0.105035
0.105014
0.104993
0.104971
0.104947
0.10492
0.104892
0.10486
0.104825
0.104786
0.104744
0.104698
0.104648
0.104594
0.104535
0.104473
0.104407
0.104336
0.104262
0.104183
0.104101
0.104016
0.103927
0.103835
0.10374
0.103644
0.103546
0.103446
0.103347
0.103247
0.103148
0.103051
0.102955
0.102863
0.102774
0.102689
0.102608
0.102533
0.102463
0.102399
0.102342
0.102291
0.102246
0.102208
0.102177
0.102153
0.102135
0.102123
0.102117
0.102117
0.102123
0.102133
0.102148
0.102167
0.10219
0.102216
0.102245
0.102276
0.102309
0.102343
0.102378
0.102414
0.10245
0.102485
0.10252
0.102554
0.102586
0.102616
0.102645
0.102671
0.102695
0.102717
0.102717
0.1
0.100273
0.100549
0.100782
0.100932
0.100986
0.100951
0.100855
0.100735
0.100622
0.100537
0.100482
0.100452
0.100435
0.100421
0.100405
0.100388
0.100376
0.100379
0.100405
0.10046
0.100546
0.100664
0.100809
0.100977
0.101162
0.101359
0.101563
0.101768
0.10197
0.102164
0.102344
0.102509
0.102656
0.102787
0.102904
0.103013
0.103119
0.103229
0.10335
0.103486
0.103641
0.103817
0.104014
0.104234
0.104475
0.104736
0.105017
0.105316
0.105632
0.105963
0.106305
0.106656
0.107011
0.107366
0.107719
0.108064
0.108399
0.108723
0.109035
0.109335
0.109624
0.109905
0.110182
0.110457
0.110735
0.111018
0.111311
0.111615
0.111934
0.112269
0.11262
0.11299
0.113377
0.113782
0.114203
0.114641
0.115092
0.115556
0.11603
0.116512
0.117
0.117492
0.117984
0.118475
0.118962
0.119444
0.119919
0.120386
0.120845
0.121295
0.121737
0.122171
0.122599
0.123023
0.123444
0.123864
0.124286
0.12471
0.125138
0.125572
0.126012
0.12646
0.126915
0.127377
0.127846
0.12832
0.128798
0.129279
0.12976
0.130238
0.130713
0.13118
0.131637
0.132083
0.132514
0.132928
0.133323
0.133697
0.13405
0.13438
0.134687
0.134971
0.135232
0.135471
0.135689
0.135889
0.136071
0.136238
0.136393
0.136537
0.136672
0.136802
0.136928
0.137052
0.137176
0.137301
0.137429
0.137559
0.137694
0.137832
0.137973
0.138118
0.138265
0.138414
0.138563
0.138712
0.138857
0.139
0.139137
0.139268
0.13939
0.139504
0.139608
0.1397
0.139781
0.139849
0.139904
0.139947
0.139977
0.139995
0.140002
0.139997
0.139983
0.139959
0.139927
0.139888
0.139844
0.139794
0.13974
0.139683
0.139623
0.139561
0.139497
0.13943
0.139362
0.13929
0.139215
0.139136
0.139051
0.13896
0.138861
0.138754
0.138635
0.138505
0.138361
0.138204
0.13803
0.137841
0.137634
0.137409
0.137166
0.136905
0.136627
0.13633
0.136017
0.135688
0.135344
0.134987
0.134617
0.134238
0.13385
0.133454
0.133054
0.13265
0.132244
0.131838
0.131433
0.13103
0.130631
0.130236
0.129846
0.129461
0.129081
0.128706
0.128337
0.127973
0.127613
0.127258
0.126905
0.126555
0.126207
0.125861
0.125516
0.125171
0.124827
0.124483
0.12414
0.123797
0.123455
0.123115
0.122777
0.122441
0.122109
0.121782
0.12146
0.121144
0.120834
0.120532
0.120237
0.119949
0.11967
0.119398
0.119133
0.118875
0.118622
0.118375
0.118132
0.117891
0.117653
0.117416
0.117178
0.11694
0.1167
0.116457
0.116212
0.115964
0.115713
0.11546
0.115204
0.114946
0.114687
0.114428
0.114169
0.113911
0.113654
0.1134
0.113149
0.112901
0.112657
0.112417
0.112181
0.111948
0.111719
0.111494
0.111271
0.111051
0.110833
0.110617
0.110403
0.110191
0.10998
0.10977
0.109563
0.109357
0.109155
0.108955
0.108759
0.108567
0.108379
0.108197
0.10802
0.10785
0.107686
0.107528
0.107377
0.107232
0.107094
0.106962
0.106836
0.106715
0.1066
0.10649
0.106385
0.106284
0.106187
0.106095
0.106006
0.10592
0.105839
0.105761
0.105687
0.105618
0.105552
0.105491
0.105434
0.105381
0.105333
0.105289
0.105249
0.105213
0.105181
0.105152
0.105126
0.105102
0.10508
0.105059
0.105038
0.105017
0.104996
0.104973
0.104949
0.104923
0.104894
0.104862
0.104827
0.104788
0.104746
0.104699
0.104649
0.104595
0.104537
0.104475
0.104408
0.104338
0.104264
0.104185
0.104103
0.104018
0.103929
0.103838
0.103744
0.103647
0.10355
0.103451
0.103351
0.103252
0.103153
0.103056
0.102961
0.102869
0.10278
0.102695
0.102615
0.102539
0.10247
0.102406
0.102348
0.102297
0.102253
0.102215
0.102183
0.102159
0.10214
0.102128
0.102122
0.102122
0.102126
0.102136
0.102151
0.102169
0.102192
0.102217
0.102245
0.102276
0.102309
0.102342
0.102377
0.102412
0.102448
0.102483
0.102517
0.10255
0.102582
0.102612
0.10264
0.102666
0.10269
0.102711
0.102711
0.1
0.100268
0.100538
0.100763
0.100909
0.100961
0.100929
0.100837
0.10072
0.10061
0.100525
0.10047
0.100438
0.10042
0.100406
0.100389
0.100373
0.100363
0.100367
0.100394
0.100451
0.100539
0.100657
0.100803
0.100971
0.101156
0.101353
0.101556
0.101761
0.101962
0.102155
0.102335
0.102499
0.102646
0.102777
0.102894
0.103002
0.103108
0.103219
0.103339
0.103474
0.103628
0.103803
0.103999
0.104217
0.104457
0.104717
0.104996
0.105294
0.105609
0.105937
0.106278
0.106626
0.106979
0.107333
0.107683
0.108026
0.10836
0.108682
0.108992
0.109291
0.10958
0.109861
0.110138
0.110414
0.110692
0.110977
0.111271
0.111578
0.111898
0.112235
0.112589
0.112961
0.113351
0.113758
0.114183
0.114623
0.115077
0.115544
0.11602
0.116505
0.116996
0.11749
0.117984
0.118478
0.118967
0.119451
0.119929
0.120398
0.12086
0.121312
0.121757
0.122195
0.122626
0.123053
0.123478
0.123902
0.124327
0.124754
0.125186
0.125623
0.126067
0.126517
0.126975
0.127439
0.12791
0.128385
0.128865
0.129346
0.129827
0.130306
0.13078
0.131247
0.131704
0.132148
0.132578
0.132991
0.133384
0.133758
0.134109
0.134438
0.134744
0.135027
0.135288
0.135527
0.135745
0.135945
0.136127
0.136295
0.13645
0.136594
0.136731
0.136861
0.136988
0.137112
0.137237
0.137362
0.13749
0.137621
0.137755
0.137893
0.138034
0.138178
0.138325
0.138473
0.138621
0.138768
0.138913
0.139054
0.13919
0.13932
0.139442
0.139554
0.139657
0.139749
0.139828
0.139896
0.139951
0.139994
0.140024
0.140042
0.140048
0.140044
0.14003
0.140006
0.139974
0.139936
0.139891
0.139842
0.139788
0.13973
0.13967
0.139608
0.139543
0.139476
0.139406
0.139334
0.139258
0.139178
0.139092
0.139
0.1389
0.138791
0.138671
0.13854
0.138396
0.138237
0.138063
0.137873
0.137666
0.137441
0.137198
0.136937
0.136659
0.136362
0.13605
0.135721
0.135377
0.135021
0.134652
0.134273
0.133885
0.13349
0.133089
0.132686
0.13228
0.131874
0.131468
0.131065
0.130666
0.13027
0.129879
0.129493
0.129113
0.128738
0.128368
0.128003
0.127642
0.127285
0.126932
0.126581
0.126233
0.125886
0.12554
0.125195
0.124851
0.124506
0.124163
0.123819
0.123477
0.123137
0.122798
0.122462
0.12213
0.121802
0.121479
0.121162
0.120852
0.120549
0.120253
0.119965
0.119684
0.119411
0.119145
0.118886
0.118632
0.118384
0.118139
0.117898
0.117659
0.11742
0.117182
0.116943
0.116702
0.116459
0.116213
0.115965
0.115713
0.115459
0.115203
0.114945
0.114686
0.114426
0.114166
0.113908
0.113651
0.113396
0.113145
0.112897
0.112652
0.112412
0.112175
0.111942
0.111713
0.111487
0.111264
0.111044
0.110826
0.11061
0.110396
0.110184
0.109973
0.109764
0.109557
0.109352
0.109149
0.10895
0.108754
0.108562
0.108375
0.108193
0.108017
0.107847
0.107683
0.107525
0.107375
0.10723
0.107092
0.106961
0.106835
0.106715
0.106601
0.106491
0.106386
0.106286
0.106189
0.106097
0.106008
0.105923
0.105842
0.105765
0.105691
0.105622
0.105557
0.105495
0.105438
0.105386
0.105338
0.105294
0.105254
0.105218
0.105186
0.105157
0.105131
0.105106
0.105084
0.105063
0.105042
0.105021
0.104999
0.104977
0.104952
0.104926
0.104896
0.104864
0.104829
0.10479
0.104748
0.104701
0.104651
0.104597
0.104539
0.104477
0.10441
0.10434
0.104266
0.104188
0.104106
0.104021
0.103933
0.103842
0.103748
0.103652
0.103554
0.103456
0.103357
0.103258
0.10316
0.103063
0.102968
0.102876
0.102788
0.102703
0.102623
0.102548
0.102478
0.102414
0.102357
0.102305
0.102261
0.102222
0.102191
0.102166
0.102147
0.102134
0.102128
0.102127
0.102131
0.10214
0.102154
0.102172
0.102194
0.102219
0.102246
0.102276
0.102308
0.102341
0.102375
0.10241
0.102445
0.102479
0.102513
0.102545
0.102577
0.102606
0.102634
0.10266
0.102683
0.102704
0.102704
0.1
0.100261
0.100523
0.10074
0.100881
0.100932
0.100902
0.100815
0.100702
0.100595
0.10051
0.100454
0.100422
0.100402
0.100387
0.100371
0.100355
0.100347
0.100353
0.100382
0.10044
0.100529
0.100648
0.100795
0.100963
0.101149
0.101345
0.101548
0.101753
0.101953
0.102145
0.102324
0.102487
0.102633
0.102764
0.102881
0.102989
0.103095
0.103205
0.103325
0.10346
0.103612
0.103786
0.103981
0.104197
0.104435
0.104693
0.104971
0.105267
0.10558
0.105906
0.106245
0.106591
0.106941
0.107292
0.10764
0.10798
0.108311
0.108631
0.10894
0.109238
0.109526
0.109807
0.110084
0.110361
0.110641
0.110927
0.111223
0.111532
0.111855
0.112194
0.112551
0.112926
0.113319
0.11373
0.114158
0.114601
0.115059
0.115529
0.116009
0.116497
0.116991
0.117488
0.117985
0.118481
0.118973
0.11946
0.119941
0.120413
0.120878
0.121334
0.121782
0.122223
0.122659
0.12309
0.123519
0.123948
0.124377
0.124808
0.125244
0.125686
0.126133
0.126587
0.127048
0.127515
0.127988
0.128465
0.128946
0.129428
0.12991
0.130389
0.130863
0.131329
0.131785
0.132228
0.132656
0.133067
0.13346
0.133831
0.134182
0.134509
0.134814
0.135096
0.135356
0.135595
0.135813
0.136013
0.136196
0.136364
0.136519
0.136665
0.136802
0.136933
0.13706
0.137186
0.137311
0.137437
0.137565
0.137695
0.137829
0.137967
0.138108
0.138251
0.138397
0.138544
0.138691
0.138837
0.138981
0.139121
0.139255
0.139384
0.139504
0.139616
0.139717
0.139808
0.139887
0.139954
0.140009
0.140051
0.140081
0.140099
0.140105
0.140101
0.140087
0.140064
0.140032
0.139994
0.139949
0.1399
0.139846
0.139788
0.139728
0.139665
0.139599
0.139531
0.139461
0.139388
0.13931
0.139229
0.139142
0.139048
0.138947
0.138837
0.138716
0.138584
0.138438
0.138279
0.138104
0.137913
0.137705
0.13748
0.137237
0.136976
0.136698
0.136402
0.136089
0.135761
0.135418
0.135062
0.134694
0.134315
0.133927
0.133533
0.133133
0.132729
0.132323
0.131917
0.131512
0.131108
0.130708
0.130312
0.12992
0.129533
0.129152
0.128776
0.128405
0.128039
0.127677
0.127319
0.126965
0.126614
0.126264
0.125917
0.12557
0.125225
0.124879
0.124535
0.12419
0.123847
0.123504
0.123163
0.122824
0.122488
0.122155
0.121826
0.121503
0.121185
0.120874
0.120569
0.120272
0.119983
0.119701
0.119427
0.119159
0.118898
0.118644
0.118394
0.118148
0.117906
0.117665
0.117426
0.117186
0.116946
0.116704
0.116461
0.116214
0.115965
0.115713
0.115459
0.115202
0.114943
0.114684
0.114423
0.114163
0.113904
0.113647
0.113392
0.113139
0.112891
0.112646
0.112405
0.112168
0.111935
0.111705
0.111479
0.111256
0.111036
0.110818
0.110602
0.110388
0.110176
0.109965
0.109756
0.109549
0.109345
0.109143
0.108944
0.108748
0.108557
0.10837
0.108189
0.108013
0.107843
0.10768
0.107523
0.107372
0.107228
0.107091
0.10696
0.106835
0.106715
0.106601
0.106492
0.106387
0.106287
0.106191
0.106099
0.106011
0.105927
0.105846
0.105769
0.105696
0.105627
0.105562
0.105501
0.105444
0.105392
0.105344
0.1053
0.10526
0.105224
0.105192
0.105163
0.105136
0.105112
0.105089
0.105068
0.105047
0.105026
0.105004
0.104981
0.104956
0.104929
0.1049
0.104867
0.104832
0.104793
0.10475
0.104704
0.104654
0.1046
0.104541
0.104479
0.104413
0.104343
0.104269
0.104191
0.10411
0.104025
0.103937
0.103846
0.103753
0.103657
0.10356
0.103462
0.103364
0.103265
0.103167
0.103071
0.102977
0.102885
0.102797
0.102713
0.102633
0.102558
0.102488
0.102425
0.102367
0.102315
0.10227
0.102232
0.1022
0.102175
0.102155
0.102142
0.102135
0.102133
0.102137
0.102146
0.102159
0.102176
0.102197
0.102221
0.102247
0.102277
0.102308
0.10234
0.102373
0.102407
0.102441
0.102475
0.102508
0.10254
0.10257
0.102599
0.102627
0.102652
0.102675
0.102695
0.102695
0.1
0.100254
0.100506
0.100714
0.100847
0.100897
0.10087
0.100788
0.100681
0.100577
0.100493
0.100437
0.100402
0.100381
0.100365
0.100349
0.100335
0.100328
0.100336
0.100367
0.100427
0.100517
0.100638
0.100785
0.100954
0.10114
0.101336
0.101539
0.101742
0.101942
0.102132
0.10231
0.102472
0.102618
0.102748
0.102865
0.102974
0.10308
0.10319
0.103309
0.103442
0.103594
0.103765
0.103959
0.104173
0.104409
0.104666
0.104941
0.105235
0.105546
0.10587
0.106205
0.106549
0.106896
0.107244
0.107588
0.107926
0.108254
0.108572
0.108878
0.109175
0.109462
0.109743
0.110021
0.110299
0.11058
0.110868
0.111166
0.111477
0.111804
0.112146
0.112507
0.112885
0.113282
0.113697
0.114129
0.114576
0.115038
0.115512
0.115996
0.116488
0.116985
0.117485
0.117986
0.118485
0.118981
0.119471
0.119955
0.120431
0.120899
0.121359
0.121812
0.122258
0.122698
0.123134
0.123568
0.124002
0.124436
0.124873
0.125314
0.12576
0.126211
0.126669
0.127134
0.127604
0.12808
0.128559
0.129042
0.129525
0.130008
0.130487
0.13096
0.131425
0.13188
0.132322
0.132748
0.133158
0.133548
0.133918
0.134267
0.134593
0.134896
0.135178
0.135437
0.135675
0.135893
0.136093
0.136276
0.136445
0.136601
0.136747
0.136885
0.137018
0.137146
0.137272
0.137398
0.137524
0.137652
0.137783
0.137917
0.138055
0.138195
0.138338
0.138482
0.138628
0.138774
0.138918
0.139061
0.139199
0.139332
0.139459
0.139578
0.139688
0.139788
0.139878
0.139956
0.140022
0.140076