# vtk DataFile Version 3.0
LBM Fluid Grid
ASCII
DATASET STRUCTURED_POINTS
DIMENSIONS 400 150 1
ORIGIN 0 0 0
SPACING 1 1 1
POINT_DATA 60000
SCALARS VelocityMagnitude double 1
LOOKUP_TABLE default
0.1
0.100023
0.100136
0.100317
0.100531
0.100742
0.100916
0.10103
0.101072
0.101046
0.100963
0.100844
0.100711
0.100581
0.100469
0.100381
0.100322
0.100291
0.100289
0.100317
0.100375
0.100462
0.100577
0.100718
0.100884
0.101071
0.10128
0.10151
0.10176
0.10203
0.102316
0.102615
0.102919
0.10322
0.103512
0.103785
0.104036
0.104263
0.104465
0.104649
0.104819
0.104982
0.105146
0.105316
0.105497
0.105691
0.105901
0.106128
0.106371
0.10663
0.106905
0.107196
0.1075
0.107817
0.108144
0.108477
0.108813
0.109148
0.109476
0.109794
0.110098
0.110385
0.110653
0.110902
0.111132
0.111345
0.111543
0.111731
0.111913
0.112093
0.112277
0.112469
0.112675
0.112897
0.113138
0.113403
0.113691
0.114004
0.114341
0.114702
0.115086
0.115491
0.115915
0.116355
0.116809
0.117273
0.117745
0.118223
0.118703
0.119183
0.11966
0.120134
0.120603
0.121065
0.121521
0.12197
0.122412
0.122849
0.123282
0.123712
0.124141
0.12457
0.125001
0.125435
0.125873
0.126317
0.126766
0.127221
0.127682
0.128148
0.128619
0.129092
0.129567
0.130042
0.130514
0.130982
0.131443
0.131895
0.132335
0.132761
0.133171
0.133563
0.133934
0.134285
0.134612
0.134916
0.135196
0.135452
0.135683
0.135892
0.136078
0.136243
0.136389
0.136517
0.136631
0.136731
0.13682
0.1369
0.136973
0.137042
0.137107
0.13717
0.137232
0.137294
0.137357
0.13742
0.137485
0.137549
0.137613
0.137675
0.137735
0.137792
0.137844
0.137889
0.137927
0.137956
0.137974
0.137981
0.137976
0.137957
0.137924
0.137877
0.137815
0.137738
0.137647
0.137542
0.137423
0.137292
0.137149
0.136996
0.136834
0.136665
0.136488
0.136308
0.136123
0.135936
0.135747
0.135558
0.135369
0.13518
0.134992
0.134805
0.134617
0.13443
0.134241
0.134049
0.133854
0.133654
0.133447
0.133232
0.133007
0.132772
0.132524
0.132262
0.131985
0.131694
0.131386
0.131064
0.130726
0.130373
0.130006
0.129627
0.129237
0.128837
0.128429
0.128015
0.127597
0.127177
0.126756
0.126335
0.125917
0.1255
0.125087
0.124678
0.124273
0.123871
0.123472
0.123076
0.122682
0.122288
0.121895
0.121501
0.121106
0.120708
0.120309
0.119907
0.119502
0.119096
0.118688
0.11828
0.117872
0.117465
0.117062
0.116663
0.11627
0.115884
0.115507
0.115139
0.114782
0.114437
0.114104
0.113784
0.113476
0.113181
0.112899
0.112629
0.11237
0.112122
0.111885
0.111657
0.111438
0.111227
0.111024
0.110828
0.110638
0.110454
0.110277
0.110106
0.10994
0.109781
0.109627
0.10948
0.10934
0.109206
0.109079
0.108958
0.108844
0.108736
0.108633
0.108536
0.108444
0.108355
0.108269
0.108185
0.108101
0.108017
0.107932
0.107844
0.107753
0.107658
0.107558
0.107453
0.107343
0.107227
0.107106
0.10698
0.10685
0.106715
0.106576
0.106435
0.106292
0.106147
0.106001
0.105855
0.105709
0.105564
0.105421
0.105279
0.105139
0.105002
0.104867
0.104734
0.104605
0.104479
0.104357
0.104239
0.104125
0.104016
0.103912
0.103813
0.103721
0.103634
0.103554
0.10348
0.103413
0.103353
0.103299
0.103253
0.103213
0.103179
0.103151
0.103128
0.103111
0.103098
0.10309
0.103084
0.103082
0.103082
0.103083
0.103085
0.103087
0.103088
0.103089
0.103088
0.103086
0.10308
0.103072
0.103061
0.103047
0.103029
0.103007
0.102982
0.102953
0.10292
0.102884
0.102844
0.1028
0.102754
0.102704
0.102652
0.102596
0.102539
0.10248
0.102419
0.102356
0.102293
0.102229
0.102164
0.1021
0.102036
0.101973
0.10191
0.101849
0.10179
0.101732
0.101677
0.101624
0.101574
0.101526
0.101482
0.10144
0.101402
0.101366
0.101335
0.101306
0.101281
0.101259
0.101241
0.101225
0.101214
0.101205
0.101199
0.101197
0.101197
0.1012
0.101206
0.101214
0.101225
0.101238
0.101253
0.101271
0.101291
0.101312
0.101336
0.101361
0.101388
0.101417
0.101447
0.101479
0.101479
0.1
0.100023
0.100136
0.100316
0.100531
0.100741
0.100916
0.10103
0.101073
0.101046
0.100963
0.100844
0.10071
0.10058
0.100467
0.10038
0.10032
0.100289
0.100287
0.100315
0.100373
0.10046
0.100575
0.100716
0.100882
0.101069
0.101278
0.101508
0.101758
0.102028
0.102315
0.102614
0.102918
0.10322
0.103512
0.103786
0.104037
0.104264
0.104467
0.104651
0.104821
0.104985
0.105149
0.105319
0.1055
0.105695
0.105905
0.106132
0.106375
0.106634
0.10691
0.107201
0.107505
0.107823
0.108149
0.108483
0.108819
0.109154
0.109482
0.1098
0.110104
0.110391
0.110659
0.110908
0.111138
0.111351
0.111549
0.111737
0.111918
0.112098
0.112282
0.112473
0.112678
0.112899
0.113141
0.113404
0.113692
0.114004
0.114341
0.114702
0.115085
0.11549
0.115913
0.116352
0.116806
0.11727
0.117742
0.118219
0.118699
0.119178
0.119656
0.12013
0.120598
0.121061
0.121516
0.121965
0.122407
0.122844
0.123276
0.123706
0.124135
0.124564
0.124994
0.125428
0.125866
0.126309
0.126758
0.127213
0.127674
0.12814
0.128611
0.129084
0.129559
0.130034
0.130506
0.130974
0.131435
0.131886
0.132327
0.132753
0.133163
0.133555
0.133927
0.134277
0.134605
0.134909
0.135189
0.135445
0.135676
0.135885
0.136071
0.136236
0.136382
0.13651
0.136624
0.136724
0.136812
0.136892
0.136966
0.137034
0.137099
0.137162
0.137224
0.137286
0.137349
0.137412
0.137477
0.137541
0.137605
0.137667
0.137728
0.137784
0.137836
0.137882
0.137919
0.137948
0.137967
0.137974
0.137969
0.13795
0.137918
0.13787
0.137808
0.137732
0.137641
0.137535
0.137417
0.137285
0.137143
0.13699
0.136828
0.136658
0.136482
0.136301
0.136117
0.13593
0.135741
0.135552
0.135363
0.135175
0.134987
0.1348
0.134613
0.134425
0.134236
0.134045
0.13385
0.13365
0.133443
0.133228
0.133004
0.132768
0.13252
0.132259
0.131982
0.131691
0.131384
0.131061
0.130723
0.13037
0.130003
0.129624
0.129234
0.128834
0.128426
0.128013
0.127595
0.127175
0.126754
0.126333
0.125914
0.125498
0.125085
0.124676
0.124271
0.123869
0.123471
0.123075
0.12268
0.122287
0.121894
0.1215
0.121105
0.120708
0.120308
0.119906
0.119502
0.119095
0.118688
0.118279
0.117871
0.117465
0.117062
0.116663
0.11627
0.115884
0.115506
0.115139
0.114782
0.114437
0.114104
0.113783
0.113476
0.113181
0.112899
0.112628
0.11237
0.112122
0.111885
0.111657
0.111438
0.111227
0.111024
0.110828
0.110638
0.110454
0.110277
0.110106
0.10994
0.109781
0.109628
0.109481
0.10934
0.109206
0.109079
0.108958
0.108844
0.108736
0.108634
0.108537
0.108444
0.108355
0.108269
0.108185
0.108102
0.108018
0.107932
0.107844
0.107753
0.107658
0.107559
0.107454
0.107344
0.107228
0.107107
0.106981
0.10685
0.106715
0.106577
0.106436
0.106292
0.106147
0.106001
0.105855
0.10571
0.105565
0.105421
0.10528
0.10514
0.105002
0.104867
0.104735
0.104606
0.10448
0.104358
0.10424
0.104126
0.104017
0.103913
0.103814
0.103721
0.103634
0.103554
0.10348
0.103413
0.103353
0.1033
0.103253
0.103213
0.103179
0.103151
0.103129
0.103111
0.103099
0.10309
0.103084
0.103082
0.103081
0.103083
0.103084
0.103086
0.103088
0.103089
0.103088
0.103085
0.10308
0.103072
0.103061
0.103047
0.103029
0.103007
0.102982
0.102953
0.10292
0.102883
0.102843
0.1028
0.102753
0.102704
0.102651
0.102596
0.102539
0.102479
0.102418
0.102356
0.102292
0.102228
0.102164
0.102099
0.102035
0.101972
0.10191
0.101849
0.10179
0.101732
0.101677
0.101624
0.101574
0.101526
0.101481
0.10144
0.101401
0.101366
0.101334
0.101306
0.10128
0.101259
0.10124
0.101225
0.101213
0.101205
0.101199
0.101196
0.101197
0.1012
0.101205
0.101214
0.101225
0.101238
0.101253
0.101271
0.101291
0.101312
0.101336
0.101361
0.101389
0.101417
0.101448
0.101479
0.101479
0.1
0.100023
0.100136
0.100317
0.100531
0.100742
0.100916
0.10103
0.101072
0.101046
0.100963
0.100844
0.100711
0.100581
0.100469
0.100381
0.100322
0.100291
0.100289
0.100317
0.100375
0.100462
0.100577
0.100718
0.100884
0.101071
0.10128
0.10151
0.10176
0.10203
0.102316
0.102615
0.102919
0.10322
0.103512
0.103785
0.104036
0.104263
0.104465
0.104649
0.104819
0.104982
0.105146
0.105316
0.105497
0.105691
0.105901
0.106128
0.106371
0.10663
0.106905
0.107196
0.1075
0.107817
0.108144
0.108477
0.108813
0.109148
0.109476
0.109794
0.110098
0.110385
0.110653
0.110902
0.111132
0.111345
0.111543
0.111731
0.111913
0.112093
0.112277
0.112469
0.112675
0.112897
0.113138
0.113403
0.113691
0.114004
0.114341
0.114702
0.115086
0.115491
0.115915
0.116355
0.116809
0.117273
0.117745
0.118223
0.118703
0.119183
0.11966
0.120134
0.120603
0.121065
0.121521
0.12197
0.122412
0.122849
0.123282
0.123712
0.124141
0.12457
0.125001
0.125435
0.125873
0.126317
0.126766
0.127221
0.127682
0.128148
0.128619
0.129092
0.129567
0.130042
0.130514
0.130982
0.131443
0.131895
0.132335
0.132761
0.133171
0.133563
0.133934
0.134285
0.134612
0.134916
0.135196
0.135452
0.135683
0.135892
0.136078
0.136243
0.136389
0.136517
0.136631
0.136731
0.13682
0.1369
0.136973
0.137042
0.137107
0.13717
0.137232
0.137294
0.137357
0.137421
0.137485
0.137549
0.137613
0.137675
0.137735
0.137792
0.137844
0.137889
0.137927
0.137956
0.137974
0.137981
0.137976
0.137957
0.137924
0.137877
0.137815
0.137738
0.137647
0.137542
0.137423
0.137292
0.137149
0.136996
0.136834
0.136664
0.136488
0.136307
0.136123
0.135936
0.135747
0.135558
0.135369
0.13518
0.134992
0.134805
0.134617
0.13443
0.13424
0.134049
0.133854
0.133654
0.133447
0.133232
0.133007
0.132772
0.132523
0.132261
0.131985
0.131693
0.131386
0.131063
0.130725
0.130372
0.130006
0.129627
0.129236
0.128836
0.128429
0.128015
0.127597
0.127177
0.126756
0.126335
0.125916
0.1255
0.125087
0.124678
0.124273
0.123871
0.123472
0.123076
0.122681
0.122288
0.121895
0.121501
0.121105
0.120708
0.120309
0.119907
0.119502
0.119096
0.118688
0.11828
0.117872
0.117465
0.117062
0.116663
0.11627
0.115884
0.115507
0.115139
0.114782
0.114437
0.114104
0.113784
0.113476
0.113181
0.112899
0.112629
0.11237
0.112122
0.111885
0.111657
0.111438
0.111227
0.111024
0.110828
0.110638
0.110455
0.110277
0.110106
0.10994
0.109781
0.109628
0.109481
0.10934
0.109206
0.109079
0.108958
0.108844
0.108736
0.108634
0.108536
0.108444
0.108355
0.108269
0.108185
0.108101
0.108017
0.107932
0.107844
0.107753
0.107658
0.107558
0.107453
0.107343
0.107227
0.107106
0.10698
0.10685
0.106715
0.106576
0.106435
0.106292
0.106147
0.106001
0.105855
0.105709
0.105565
0.105421
0.105279
0.105139
0.105002
0.104867
0.104734
0.104605
0.104479
0.104357
0.104239
0.104125
0.104016
0.103912
0.103814
0.103721
0.103634
0.103554
0.10348
0.103413
0.103353
0.103299
0.103253
0.103213
0.103179
0.103151
0.103128
0.103111
0.103098
0.10309
0.103084
0.103082
0.103082
0.103083
0.103085
0.103087
0.103088
0.103089
0.103088
0.103086
0.10308
0.103072
0.103061
0.103047
0.103029
0.103007
0.102982
0.102953
0.10292
0.102884
0.102844
0.1028
0.102754
0.102704
0.102652
0.102596
0.102539
0.10248
0.102419
0.102356
0.102293
0.102229
0.102164
0.1021
0.102036
0.101972
0.10191
0.101849
0.10179
0.101732
0.101677
0.101624
0.101574
0.101526
0.101482
0.10144
0.101402
0.101366
0.101334
0.101306
0.101281
0.101259
0.101241
0.101225
0.101214
0.101205
0.101199
0.101197
0.101197
0.1012
0.101206
0.101214
0.101225
0.101238
0.101253
0.101271
0.10129
0.101312
0.101336
0.101361
0.101388
0.101417
0.101447
0.101479
0.101479
0.1
0.100024
0.100138
0.100319
0.100532
0.100742
0.100916
0.101029
0.101071
0.101045
0.100963
0.100845
0.100713
0.100585
0.100474
0.100387
0.100328
0.100297
0.100296
0.100323
0.100381
0.100468
0.100583
0.100724
0.100889
0.101076
0.101285
0.101514
0.101764
0.102033
0.102319
0.102616
0.102919
0.10322
0.10351
0.103782
0.104032
0.104258
0.10446
0.104643
0.104812
0.104975
0.105138
0.105307
0.105487
0.105681
0.10589
0.106116
0.106358
0.106617
0.106892
0.107181
0.107486
0.107802
0.108128
0.108461
0.108796
0.10913
0.109458
0.109775
0.110079
0.110366
0.110634
0.110883
0.111113
0.111326
0.111525
0.111714
0.111897
0.112078
0.112264
0.112458
0.112665
0.112888
0.113132
0.113398
0.113688
0.114002
0.114342
0.114705
0.11509
0.115496
0.115921
0.116363
0.116817
0.117282
0.117755
0.118234
0.118714
0.119195
0.119673
0.120147
0.120616
0.121079
0.121535
0.121985
0.122428
0.122866
0.123299
0.12373
0.124159
0.124589
0.125021
0.125456
0.125895
0.126339
0.126789
0.127245
0.127706
0.128173
0.128644
0.129117
0.129593
0.130067
0.130539
0.131007
0.131468
0.131919
0.132359
0.132784
0.133194
0.133585
0.133957
0.134307
0.134634
0.134937
0.135217
0.135472
0.135704
0.135912
0.136098
0.136264
0.13641
0.136539
0.136652
0.136753
0.136842
0.136923
0.136996
0.137065
0.13713
0.137193
0.137256
0.137318
0.137381
0.137445
0.137509
0.137573
0.137637
0.137699
0.137759
0.137815
0.137866
0.137911
0.137949
0.137977
0.137995
0.138002
0.137996
0.137977
0.137944
0.137897
0.137835
0.137758
0.137666
0.137561
0.137442
0.137311
0.137168
0.137015
0.136853
0.136683
0.136507
0.136326
0.136141
0.135953
0.135764
0.135575
0.135385
0.135196
0.135007
0.134819
0.134632
0.134443
0.134254
0.134062
0.133866
0.133665
0.133458
0.133242
0.133017
0.132781
0.132532
0.13227
0.131994
0.131702
0.131394
0.131072
0.130733
0.13038
0.130014
0.129635
0.129244
0.128844
0.128436
0.128023
0.127605
0.127184
0.126763
0.126342
0.125923
0.125506
0.125093
0.124683
0.124277
0.123875
0.123476
0.123079
0.122685
0.122291
0.121897
0.121503
0.121107
0.12071
0.12031
0.119908
0.119504
0.119097
0.118689
0.118281
0.117873
0.117467
0.117063
0.116664
0.116271
0.115885
0.115508
0.11514
0.114783
0.114438
0.114105
0.113785
0.113477
0.113182
0.112899
0.112629
0.11237
0.112123
0.111885
0.111657
0.111438
0.111227
0.111024
0.110828
0.110638
0.110455
0.110277
0.110106
0.10994
0.109781
0.109628
0.109481
0.10934
0.109206
0.109079
0.108958
0.108844
0.108735
0.108633
0.108536
0.108443
0.108354
0.108268
0.108184
0.1081
0.108016
0.107931
0.107843
0.107752
0.107657
0.107557
0.107452
0.107342
0.107226
0.107105
0.106979
0.106848
0.106713
0.106575
0.106434
0.10629
0.106145
0.106
0.105854
0.105708
0.105563
0.10542
0.105278
0.105138
0.105
0.104865
0.104733
0.104604
0.104478
0.104356
0.104238
0.104124
0.104015
0.103911
0.103812
0.103719
0.103633
0.103552
0.103479
0.103412
0.103352
0.103298
0.103252
0.103212
0.103178
0.10315
0.103128
0.103111
0.103098
0.10309
0.103085
0.103082
0.103082
0.103083
0.103085
0.103087
0.103089
0.10309
0.103089
0.103087
0.103082
0.103074
0.103063
0.103048
0.10303
0.103009
0.102984
0.102955
0.102922
0.102885
0.102845
0.102802
0.102755
0.102705
0.102653
0.102598
0.10254
0.102481
0.10242
0.102357
0.102294
0.10223
0.102165
0.102101
0.102037
0.101974
0.101911
0.10185
0.101791
0.101734
0.101678
0.101625
0.101575
0.101527
0.101483
0.101441
0.101403
0.101368
0.101336
0.101307
0.101282
0.10126
0.101242
0.101227
0.101215
0.101206
0.1012
0.101197
0.101198
0.101201
0.101206
0.101214
0.101225
0.101238
0.101253
0.101271
0.10129
0.101312
0.101335
0.10136
0.101387
0.101416
0.101446
0.101477
0.101477
0.1
0.100026
0.100141
0.100322
0.100535
0.100743
0.100915
0.101027
0.101069
0.101043
0.100963
0.100847
0.100718
0.100592
0.100482
0.100397
0.100338
0.100307
0.100306
0.100334
0.100391
0.100478
0.100592
0.100733
0.100898
0.101085
0.101293
0.101522
0.101771
0.102039
0.102323
0.102619
0.10292
0.103219
0.103507
0.103777
0.104025
0.104249
0.10445
0.104632
0.1048
0.104962
0.105124
0.105292
0.105471
0.105664
0.105872
0.106096
0.106337
0.106595
0.106869
0.107158
0.107461
0.107776
0.108102
0.108433
0.108768
0.109101
0.109428
0.109744
0.110047
0.110334
0.110602
0.110851
0.111081
0.111295
0.111496
0.111686
0.11187
0.112054
0.112242
0.112438
0.112648
0.112874
0.113121
0.11339
0.113683
0.114
0.114342
0.114708
0.115096
0.115505
0.115932
0.116375
0.116831
0.117298
0.117773
0.118252
0.118733
0.119215
0.119694
0.120169
0.120639
0.121102
0.121559
0.122009
0.122454
0.122893
0.123327
0.123759
0.12419
0.124622
0.125055
0.125491
0.125931
0.126377
0.126828
0.127284
0.127747
0.128214
0.128685
0.129159
0.129635
0.130109
0.130581
0.131049
0.131509
0.13196
0.132399
0.132824
0.133233
0.133623
0.133994
0.134343
0.13467
0.134973
0.135252
0.135507
0.135739
0.135947
0.136133
0.136299
0.136445
0.136574
0.136688
0.136789
0.136879
0.13696
0.137034
0.137103
0.137169
0.137233
0.137296
0.137358
0.137421
0.137485
0.137549
0.137613
0.137676
0.137738
0.137798
0.137853
0.137904
0.137949
0.137986
0.138013
0.138031
0.138037
0.138031
0.138011
0.137978
0.13793
0.137867
0.13779
0.137698
0.137593
0.137474
0.137342
0.137199
0.137046
0.136884
0.136714
0.136537
0.136356
0.136171
0.135983
0.135793
0.135603
0.135413
0.135223
0.135033
0.134844
0.134656
0.134466
0.134276
0.134083
0.133886
0.133684
0.133476
0.13326
0.133034
0.132797
0.132548
0.132285
0.132008
0.131716
0.131408
0.131085
0.130747
0.130394
0.130027
0.129648
0.129257
0.128857
0.128449
0.128035
0.127617
0.127196
0.126774
0.126353
0.125933
0.125516
0.125102
0.124692
0.124286
0.123883
0.123483
0.123085
0.12269
0.122295
0.121901
0.121507
0.121111
0.120713
0.120313
0.11991
0.119506
0.119099
0.118691
0.118283
0.117875
0.117468
0.117065
0.116666
0.116273
0.115887
0.11551
0.115142
0.114785
0.11444
0.114106
0.113786
0.113478
0.113183
0.1129
0.11263
0.112371
0.112123
0.111886
0.111658
0.111438
0.111228
0.111024
0.110828
0.110638
0.110455
0.110277
0.110106
0.10994
0.109781
0.109628
0.109481
0.10934
0.109206
0.109078
0.108957
0.108843
0.108735
0.108632
0.108535
0.108442
0.108353
0.108267
0.108182
0.108098
0.108014
0.107929
0.107841
0.10775
0.107654
0.107555
0.10745
0.107339
0.107224
0.107103
0.106977
0.106846
0.106711
0.106573
0.106432
0.106288
0.106143
0.105997
0.105851
0.105706
0.105561
0.105417
0.105275
0.105135
0.104998
0.104863
0.10473
0.104601
0.104475
0.104353
0.104235
0.104121
0.104012
0.103908
0.10381
0.103717
0.10363
0.10355
0.103477
0.10341
0.10335
0.103297
0.10325
0.10321
0.103177
0.103149
0.103127
0.10311
0.103098
0.10309
0.103085
0.103082
0.103082
0.103084
0.103086
0.103088
0.10309
0.103092
0.103091
0.103088
0.103083
0.103076
0.103065
0.10305
0.103033
0.103011
0.102986
0.102957
0.102924
0.102888
0.102848
0.102804
0.102758
0.102708
0.102655
0.1026
0.102543
0.102483
0.102422
0.10236
0.102296
0.102232
0.102167
0.102103
0.102039
0.101976
0.101913
0.101852
0.101793
0.101736
0.10168
0.101627
0.101577
0.101529
0.101485
0.101443
0.101405
0.10137
0.101338
0.101309
0.101284
0.101262
0.101244
0.101228
0.101216
0.101207
0.101202
0.101199
0.101199
0.101202
0.101207
0.101215
0.101225
0.101238
0.101253
0.10127
0.10129
0.101311
0.101334
0.101359
0.101385
0.101414
0.101443
0.101474
0.101474
0.1
0.100028
0.100144
0.100326
0.100538
0.100745
0.100914
0.101024
0.101065
0.10104
0.100962
0.10085
0.100724
0.100601
0.100494
0.10041
0.100352
0.100322
0.10032
0.100348
0.100405
0.100491
0.100606
0.100746
0.10091
0.101097
0.101304
0.101532
0.10178
0.102047
0.102329
0.102623
0.102922
0.103218
0.103503
0.10377
0.104016
0.104238
0.104437
0.104617
0.104784
0.104944
0.105105
0.105272
0.105449
0.10564
0.105846
0.106069
0.106308
0.106564
0.106837
0.107124
0.107426
0.10774
0.108064
0.108395
0.108728
0.10906
0.109386
0.109701
0.110004
0.110289
0.110557
0.110806
0.111037
0.111252
0.111454
0.111647
0.111834
0.11202
0.112211
0.112411
0.112625
0.112855
0.113106
0.113379
0.113676
0.113998
0.114344
0.114713
0.115105
0.115517
0.115947
0.116393
0.116851
0.11732
0.117796
0.118277
0.11876
0.119243
0.119723
0.120199
0.12067
0.121135
0.121593
0.122044
0.12249
0.12293
0.123367
0.123801
0.124234
0.124667
0.125102
0.12554
0.125982
0.126429
0.126881
0.12734
0.127803
0.128271
0.128743
0.129218
0.129693
0.130168
0.13064
0.131107
0.131566
0.132017
0.132455
0.132879
0.133287
0.133676
0.134046
0.134394
0.13472
0.135022
0.135301
0.135556
0.135787
0.135995
0.136181
0.136347
0.136494
0.136624
0.136739
0.13684
0.136931
0.137013
0.137088
0.137157
0.137224
0.137288
0.137351
0.137414
0.137477
0.137541
0.137605
0.137669
0.137732
0.137793
0.137852
0.137907
0.137957
0.138001
0.138037
0.138064
0.138081
0.138086
0.138079
0.138059
0.138025
0.137976
0.137913
0.137835
0.137743
0.137638
0.137518
0.137387
0.137243
0.13709
0.136927
0.136757
0.13658
0.136398
0.136212
0.136024
0.135833
0.135642
0.135451
0.13526
0.13507
0.134879
0.134689
0.134499
0.134307
0.134112
0.133914
0.133711
0.133502
0.133284
0.133057
0.13282
0.132569
0.132306
0.132028
0.131736
0.131428
0.131104
0.130766
0.130412
0.130046
0.129666
0.129276
0.128875
0.128467
0.128053
0.127634
0.127213
0.126791
0.126369
0.125948
0.12553
0.125116
0.124704
0.124297
0.123893
0.123492
0.123094
0.122697
0.122302
0.121907
0.121512
0.121115
0.120717
0.120316
0.119914
0.119509
0.119102
0.118694
0.118285
0.117877
0.117471
0.117068
0.116669
0.116276
0.11589
0.115512
0.115144
0.114787
0.114442
0.114108
0.113788
0.113479
0.113184
0.112901
0.112631
0.112372
0.112124
0.111886
0.111658
0.111439
0.111228
0.111024
0.110828
0.110638
0.110455
0.110277
0.110106
0.10994
0.109781
0.109627
0.10948
0.10934
0.109205
0.109078
0.108957
0.108842
0.108734
0.108631
0.108533
0.10844
0.108351
0.108264
0.10818
0.108096
0.108011
0.107926
0.107838
0.107746
0.107651
0.107551
0.107446
0.107336
0.10722
0.107099
0.106973
0.106843
0.106708
0.10657
0.106428
0.106285
0.10614
0.105994
0.105848
0.105702
0.105558
0.105414
0.105272
0.105132
0.104994
0.104859
0.104727
0.104598
0.104472
0.10435
0.104232
0.104118
0.104009
0.103905
0.103806
0.103714
0.103627
0.103547
0.103474
0.103407
0.103348
0.103295
0.103248
0.103209
0.103175
0.103148
0.103126
0.10311
0.103098
0.10309
0.103085
0.103083
0.103083
0.103085
0.103087
0.10309
0.103092
0.103094
0.103093
0.103091
0.103086
0.103078
0.103068
0.103054
0.103036
0.103014
0.102989
0.10296
0.102927
0.102891
0.102851
0.102808
0.102761
0.102711
0.102658
0.102603
0.102546
0.102486
0.102425
0.102362
0.102299
0.102235
0.10217
0.102106
0.102042
0.101978
0.101916
0.101855
0.101796
0.101738
0.101683
0.10163
0.10158
0.101532
0.101488
0.101446
0.101408
0.101372
0.10134
0.101312
0.101287
0.101265
0.101246
0.101231
0.101219
0.10121
0.101204
0.101201
0.101201
0.101203
0.101208
0.101216
0.101226
0.101239
0.101253
0.10127
0.101289
0.10131
0.101332
0.101357
0.101383
0.101411
0.10144
0.101471
0.101471
0.1
0.100031
0.100149
0.100331
0.100542
0.100746
0.100913
0.10102
0.101061
0.101037
0.100961
0.100853
0.100731
0.100612
0.100508
0.100426
0.100369
0.10034
0.100338
0.100366
0.100423
0.100509
0.100623
0.100762
0.100926
0.101112
0.101319
0.101545
0.101792
0.102057
0.102337
0.102628
0.102924
0.103216
0.103497
0.103762
0.104004
0.104223
0.104419
0.104597
0.104762
0.104921
0.10508
0.105245
0.10542
0.105609
0.105813
0.106034
0.106271
0.106525
0.106795
0.107081
0.107382
0.107694
0.108017
0.108346
0.108677
0.109008
0.109332
0.109646
0.109947
0.110232
0.1105
0.110749
0.110981
0.111198
0.111401
0.111596
0.111787
0.111977
0.112172
0.112377
0.112595
0.112831
0.113087
0.113365
0.113667
0.113994
0.114345
0.114719
0.115116
0.115532
0.115966
0.116415
0.116877
0.117348
0.117827
0.11831
0.118794
0.119278
0.11976
0.120238
0.12071
0.121176
0.121636
0.122089
0.122536
0.122979
0.123418
0.123854
0.124289
0.124725
0.125162
0.125602
0.126047
0.126496
0.126951
0.12741
0.127875
0.128345
0.128818
0.129293
0.129769
0.130243
0.130715
0.131181
0.13164
0.132089
0.132527
0.132949
0.133356
0.133744
0.134113
0.13446
0.134784
0.135086
0.135364
0.135618
0.135849
0.136057
0.136243
0.13641
0.136557
0.136688
0.136803
0.136906
0.136997
0.13708
0.137156
0.137227
0.137294
0.137359
0.137422
0.137486
0.137549
0.137613
0.137677
0.13774
0.137803
0.137864
0.137922
0.137976
0.138025
0.138068
0.138103
0.138129
0.138145
0.138149
0.138141
0.13812
0.138085
0.138035
0.137972
0.137894
0.137801
0.137695
0.137575
0.137443
0.1373
0.137146
0.136983
0.136813
0.136635
0.136453
0.136266
0.136077
0.135885
0.135693
0.135501
0.135308
0.135116
0.134925
0.134733
0.134541
0.134347
0.134151
0.133951
0.133746
0.133535
0.133316
0.133088
0.132849
0.132597
0.132333
0.132054
0.131761
0.131453
0.131129
0.13079
0.130436
0.130069
0.12969
0.129299
0.128899
0.128491
0.128076
0.127657
0.127235
0.126812
0.126389
0.125968
0.125549
0.125133
0.12472
0.124311
0.123906
0.123504
0.123104
0.122707
0.122311
0.121915
0.121518
0.121121
0.120722
0.120321
0.119918
0.119512
0.119105
0.118697
0.118289
0.117881
0.117474
0.117071
0.116672
0.116279
0.115893
0.115515
0.115147
0.11479
0.114444
0.114111
0.11379
0.113481
0.113186
0.112903
0.112632
0.112373
0.112124
0.111886
0.111658
0.111439
0.111228
0.111024
0.110828
0.110638
0.110455
0.110277
0.110106
0.10994
0.109781
0.109627
0.10948
0.109339
0.109205
0.109077
0.108956
0.108841
0.108732
0.108629
0.108531
0.108438
0.108348
0.108262
0.108177
0.108092
0.108008
0.107922
0.107834
0.107742
0.107647
0.107547
0.107442
0.107332
0.107216
0.107095
0.106969
0.106838
0.106704
0.106565
0.106424
0.106281
0.106136
0.10599
0.105844
0.105698
0.105553
0.10541
0.105268
0.105128
0.10499
0.104855
0.104723
0.104593
0.104467
0.104345
0.104227
0.104114
0.104005
0.103901
0.103802
0.10371
0.103624
0.103544
0.103471
0.103404
0.103345
0.103292
0.103246
0.103207
0.103174
0.103147
0.103125
0.103109
0.103097
0.10309
0.103085
0.103084
0.103084
0.103086
0.103089
0.103092
0.103095
0.103096
0.103096
0.103094
0.103089
0.103082
0.103071
0.103057
0.10304
0.103018
0.102993
0.102964
0.102932
0.102895
0.102855
0.102812
0.102765
0.102715
0.102662
0.102607
0.10255
0.10249
0.102429
0.102366
0.102303
0.102238
0.102174
0.102109
0.102045
0.101982
0.101919
0.101858
0.101799
0.101742
0.101686
0.101633
0.101583
0.101536
0.101491
0.101449
0.101411
0.101376
0.101344
0.101315
0.10129
0.101268
0.10125
0.101234
0.101222
0.101213
0.101207
0.101203
0.101203
0.101205
0.10121
0.101217
0.101227
0.101239
0.101253
0.101269
0.101288
0.101308
0.10133
0.101354
0.10138
0.101407
0.101436
0.101466
0.101466
0.1
0.100034
0.100154
0.100337
0.100547
0.100748
0.100911
0.101016
0.101055
0.101032
0.100961
0.100857
0.100741
0.100626
0.100526
0.100446
0.100391
0.100362
0.10036
0.100388
0.100444
0.10053
0.100643
0.100782
0.100945
0.10113
0.101336
0.101562
0.101806
0.102069
0.102347
0.102634
0.102926
0.103214
0.103491
0.103751
0.103989
0.104204
0.104398
0.104574
0.104736
0.104893
0.10505
0.105212
0.105385
0.105571
0.105773
0.105991
0.106226
0.106477
0.106745
0.107029
0.107327
0.107638
0.107959
0.108286
0.108616
0.108944
0.109266
0.109579
0.109879
0.110163
0.11043
0.11068
0.110913
0.111131
0.111337
0.111535
0.111729
0.111924
0.112124
0.112335
0.112559
0.112801
0.113063
0.113348
0.113657
0.11399
0.114347
0.114727
0.115129
0.11555
0.115989
0.116442
0.116907
0.117382
0.117864
0.118349
0.118836
0.119322
0.119805
0.120285
0.120759
0.121226
0.121688
0.122143
0.122593
0.123038
0.12348
0.123919
0.124357
0.124795
0.125236
0.125679
0.126126
0.126578
0.127035
0.127497
0.127963
0.128434
0.128908
0.129384
0.12986
0.130335
0.130806
0.131272
0.13173
0.132178
0.132614
0.133035
0.13344
0.133827
0.134194
0.134539
0.134863
0.135163
0.13544
0.135694
0.135924
0.136132
0.136319
0.136485
0.136634
0.136765
0.136882
0.136985
0.137078
0.137162
0.137239
0.137311
0.137379
0.137445
0.137509
0.137573
0.137637
0.137701
0.137764
0.137827
0.13789
0.13795
0.138007
0.13806
0.138108
0.13815
0.138183
0.138208
0.138222
0.138225
0.138216
0.138194
0.138158
0.138108
0.138043
0.137965
0.137872
0.137765
0.137645
0.137513
0.137369
0.137215
0.137052
0.13688
0.136703
0.136519
0.136332
0.136141
0.135949
0.135755
0.135561
0.135367
0.135174
0.13498
0.134786
0.134592
0.134396
0.134198
0.133996
0.133789
0.133576
0.133355
0.133125
0.132884
0.132632
0.132366
0.132087
0.131792
0.131483
0.131159
0.13082
0.130466
0.130099
0.129719
0.129328
0.128928
0.128519
0.128104
0.127684
0.127262
0.126838
0.126414
0.125991
0.125571
0.125154
0.12474
0.124329
0.123922
0.123519
0.123118
0.122719
0.122321
0.121924
0.121526
0.121128
0.120728
0.120326
0.119923
0.119517
0.11911
0.118701
0.118293
0.117885
0.117478
0.117075
0.116676
0.116283
0.115897
0.115519
0.115151
0.114793
0.114447
0.114114
0.113792
0.113483
0.113188
0.112904
0.112633
0.112373
0.112125
0.111887
0.111658
0.111439
0.111228
0.111024
0.110828
0.110638
0.110454
0.110277
0.110105
0.10994
0.10978
0.109627
0.109479
0.109338
0.109204
0.109076
0.108954
0.108839
0.10873
0.108627
0.108529
0.108435
0.108345
0.108258
0.108173
0.108088
0.108003
0.107917
0.107829
0.107737
0.107642
0.107542
0.107437
0.107326
0.107211
0.10709
0.106964
0.106833
0.106699
0.10656
0.106419
0.106276
0.106131
0.105985
0.105839
0.105693
0.105548
0.105405
0.105263
0.105123
0.104985
0.10485
0.104717
0.104588
0.104462
0.10434
0.104222
0.104108
0.104
0.103896
0.103798
0.103705
0.103619
0.10354
0.103467
0.103401
0.103341
0.103289
0.103243
0.103204
0.103172
0.103145
0.103124
0.103108
0.103097
0.10309
0.103086
0.103085
0.103086
0.103088
0.103091
0.103095
0.103097
0.103099
0.1031
0.103098
0.103093
0.103086
0.103076
0.103062
0.103044
0.103023
0.102998
0.102969
0.102937
0.1029
0.10286
0.102817
0.10277
0.10272
0.102667
0.102612
0.102554
0.102495
0.102433
0.102371
0.102307
0.102243
0.102178
0.102113
0.102049
0.101986
0.101923
0.101862
0.101803
0.101746
0.10169
0.101638
0.101587
0.10154
0.101495
0.101454
0.101415
0.10138
0.101348
0.10132
0.101294
0.101272
0.101254
0.101238
0.101226
0.101216
0.10121
0.101207
0.101206
0.101208
0.101212
0.101219
0.101228
0.10124
0.101253
0.101269
0.101287
0.101306
0.101328
0.101351
0.101376
0.101403
0.101431
0.101461
0.101461
0.1
0.100038
0.100161
0.100344
0.100552
0.10075
0.100909
0.10101
0.101048
0.101027
0.10096
0.100862
0.100751
0.100643
0.100546
0.100469
0.100416
0.100387
0.100386
0.100413
0.100469
0.100554
0.100667
0.100805
0.100968
0.101152
0.101356
0.10158
0.101823
0.102083
0.102357
0.102641
0.102928
0.103211
0.103482
0.103737
0.103971
0.104183
0.104373
0.104545
0.104706
0.10486
0.105014
0.105174
0.105344
0.105527
0.105725
0.10594
0.106172
0.106421
0.106686
0.106968
0.107263
0.107572
0.10789
0.108215
0.108543
0.108869
0.109189
0.1095
0.109799
0.110082
0.110348
0.110598
0.110833
0.111053
0.111262
0.111464
0.111662
0.111863
0.112069
0.112285
0.112517
0.112766
0.113036
0.113328
0.113644
0.113985
0.114349
0.114736
0.115144
0.115571
0.116015
0.116474
0.116943
0.117422
0.117907
0.118395
0.118885
0.119373
0.119858
0.12034
0.120816
0.121286
0.12175
0.122208
0.12266
0.123108
0.123553
0.123995
0.124437
0.124879
0.125322
0.125769
0.12622
0.126675
0.127134
0.127599
0.128067
0.12854
0.129015
0.129492
0.129968
0.130443
0.130914
0.131379
0.131836
0.132282
0.132717
0.133136
0.133539
0.133924
0.134289
0.134633
0.134955
0.135254
0.13553
0.135783
0.136013
0.136221
0.136408
0.136575
0.136724
0.136856
0.136974
0.137079
0.137173
0.137259
0.137337
0.13741
0.13748
0.137547
0.137612
0.137676
0.13774
0.137804
0.137868
0.13793
0.137992
0.138051
0.138107
0.138159
0.138206
0.138246
0.138278
0.138301
0.138314
0.138316