# vtk DataFile Version 3.0
LBM Fluid Grid
ASCII
DATASET STRUCTURED_POINTS
DIMENSIONS 400 150 1
ORIGIN 0 0 0
SPACING 1 1 1
POINT_DATA 60000
SCALARS VelocityMagnitude double 1
LOOKUP_TABLE default
0.1
0.0999876
0.0999769
0.0999692
0.099962
0.0999512
0.0999331
0.0999061
0.0998715
0.0998332
0.0997969
0.0997682
0.0997521
0.099752
0.0997695
0.099805
0.0998581
0.099928
0.100014
0.100115
0.100229
0.100356
0.100491
0.100633
0.100778
0.100923
0.101065
0.101204
0.101338
0.101468
0.101595
0.10172
0.101845
0.101971
0.1021
0.102233
0.102372
0.102518
0.102673
0.102838
0.103015
0.103205
0.103409
0.103626
0.103858
0.104103
0.104361
0.104628
0.104904
0.105186
0.105474
0.105764
0.106055
0.106347
0.106638
0.106929
0.107218
0.107507
0.107796
0.108086
0.108378
0.108673
0.108973
0.109279
0.109593
0.109915
0.110248
0.110592
0.110949
0.111317
0.111699
0.112094
0.112501
0.112919
0.113349
0.113788
0.114235
0.11469
0.11515
0.115613
0.11608
0.116547
0.117014
0.117481
0.117946
0.118408
0.118868
0.119326
0.119782
0.120235
0.120687
0.121138
0.121588
0.122038
0.122489
0.12294
0.123393
0.123848
0.124304
0.124762
0.125221
0.125682
0.126143
0.126604
0.127064
0.127522
0.127977
0.128427
0.128873
0.129311
0.129742
0.130164
0.130575
0.130976
0.131365
0.131741
0.132105
0.132455
0.132792
0.133116
0.133427
0.133725
0.134012
0.134287
0.134551
0.134805
0.135051
0.135288
0.135518
0.135741
0.135958
0.136171
0.136378
0.136582
0.136782
0.136978
0.13717
0.137359
0.137544
0.137725
0.137901
0.138072
0.138238
0.138398
0.138551
0.138696
0.138833
0.138962
0.139082
0.139192
0.139292
0.139382
0.139463
0.139533
0.139594
0.139644
0.139686
0.139719
0.139744
0.139762
0.139773
0.139778
0.139779
0.139775
0.139768
0.139758
0.139746
0.139733
0.13972
0.139706
0.139693
0.13968
0.139667
0.139655
0.139644
0.139633
0.139621
0.13961
0.139598
0.139584
0.139569
0.139551
0.13953
0.139506
0.139478
0.139446
0.139409
0.139366
0.139319
0.139266
0.139207
0.139143
0.139074
0.139
0.138921
0.138837
0.13875
0.138659
0.138565
0.138469
0.138371
0.138271
0.13817
0.138069
0.137968
0.137867
0.137767
0.137667
0.137567
0.137469
0.137371
0.137274
0.137177
0.13708
0.136982
0.136884
0.136786
0.136685
0.136583
0.136479
0.136373
0.136264
0.136152
0.136037
0.135919
0.135798
0.135674
0.135547
0.135417
0.135286
0.135152
0.135018
0.134882
0.134745
0.134609
0.134474
0.134339
0.134206
0.134075
0.133946
0.13382
0.133697
0.133577
0.13346
0.133346
0.133235
0.133128
0.133023
0.132921
0.13282
0.132722
0.132626
0.13253
0.132435
0.13234
0.132246
0.132151
0.132055
0.131958
0.13186
0.131762
0.131661
0.13156
0.131457
0.131354
0.131249
0.131144
0.131039
0.130933
0.130828
0.130723
0.130619
0.130516
0.130414
0.130314
0.130215
0.130117
0.130021
0.129927
0.129834
0.129742
0.129651
0.129561
0.129471
0.129382
0.129292
0.129202
0.129111
0.129019
0.128926
0.12883
0.128734
0.128635
0.128534
0.128432
0.128327
0.128221
0.128113
0.128004
0.127894
0.127783
0.127671
0.12756
0.127449
0.127338
0.127229
0.127121
0.127014
0.12691
0.126807
0.126707
0.126609
0.126514
0.12642
0.126329
0.126239
0.126152
0.126066
0.125981
0.125897
0.125814
0.125731
0.125648
0.125565
0.125481
0.125397
0.125312
0.125226
0.125139
0.125051
0.124962
0.124872
0.124782
0.12469
0.124598
0.124506
0.124414
0.124322
0.12423
0.124138
0.124047
0.123957
0.123868
0.12378
0.123693
0.123606
0.123521
0.123436
0.123353
0.12327
0.123187
0.123105
0.123022
0.12294
0.122858
0.122775
0.122693
0.122609
0.122526
0.122442
0.122358
0.122273
0.122188
0.122104
0.122019
0.121935
0.121852
0.12177
0.121689
0.121609
0.121531
0.121455
0.121381
0.121309
0.12124
0.121173
0.121109
0.121047
0.120988
0.120932
0.120879
0.120828
0.12078
0.120734
0.120691
0.12065
0.120612
0.120577
0.120543
0.120513
0.120484
0.120459
0.120436
0.120415
0.120398
0.120384
0.120373
0.120365
0.120361
0.120361
0.1
0.0999874
0.0999767
0.0999689
0.0999616
0.0999509
0.0999328
0.0999058
0.0998711
0.0998328
0.0997963
0.0997675
0.0997514
0.0997512
0.0997687
0.0998042
0.0998572
0.0999272
0.100013
0.100114
0.100229
0.100355
0.100491
0.100633
0.100778
0.100923
0.101065
0.101204
0.101338
0.101468
0.101595
0.10172
0.101845
0.101971
0.102101
0.102234
0.102373
0.102519
0.102674
0.102839
0.103016
0.103206
0.10341
0.103628
0.10386
0.104105
0.104362
0.10463
0.104906
0.105189
0.105476
0.105766
0.106058
0.10635
0.106641
0.106932
0.107221
0.10751
0.107799
0.108089
0.108381
0.108676
0.108976
0.109282
0.109595
0.109918
0.11025
0.110594
0.11095
0.111319
0.1117
0.112095
0.112501
0.11292
0.113349
0.113788
0.114236
0.11469
0.11515
0.115613
0.116079
0.116546
0.117013
0.11748
0.117944
0.118407
0.118867
0.119324
0.11978
0.120233
0.120684
0.121135
0.121585
0.122035
0.122485
0.122936
0.123389
0.123843
0.124299
0.124757
0.125216
0.125676
0.126137
0.126598
0.127058
0.127516
0.127971
0.128421
0.128866
0.129305
0.129736
0.130157
0.130569
0.13097
0.131358
0.131735
0.132099
0.132449
0.132786
0.13311
0.133421
0.133719
0.134006
0.13428
0.134545
0.134799
0.135044
0.135282
0.135511
0.135735
0.135952
0.136164
0.136372
0.136576
0.136775
0.136972
0.137164
0.137353
0.137538
0.137719
0.137895
0.138067
0.138233
0.138392
0.138545
0.138691
0.138828
0.138957
0.139077
0.139187
0.139288
0.139378
0.139458
0.139529
0.139589
0.13964
0.139682
0.139715
0.13974
0.139758
0.139769
0.139775
0.139775
0.139771
0.139764
0.139754
0.139743
0.13973
0.139717
0.139703
0.139689
0.139676
0.139664
0.139652
0.139641
0.13963
0.139619
0.139607
0.139595
0.139582
0.139567
0.139549
0.139528
0.139504
0.139476
0.139444
0.139407
0.139365
0.139317
0.139264
0.139206
0.139142
0.139073
0.138998
0.138919
0.138836
0.138748
0.138657
0.138563
0.138467
0.138369
0.138269
0.138168
0.138067
0.137966
0.137865
0.137764
0.137664
0.137565
0.137466
0.137368
0.137271
0.137174
0.137077
0.136979
0.136881
0.136783
0.136682
0.13658
0.136476
0.136369
0.13626
0.136148
0.136033
0.135915
0.135794
0.135669
0.135543
0.135413
0.135281
0.135148
0.135013
0.134877
0.13474
0.134604
0.134468
0.134334
0.1342
0.134069
0.13394
0.133814
0.133691
0.133571
0.133454
0.13334
0.13323
0.133122
0.133017
0.132915
0.132815
0.132717
0.13262
0.132525
0.13243
0.132335
0.132241
0.132146
0.13205
0.131954
0.131856
0.131757
0.131657
0.131556
0.131453
0.13135
0.131246
0.131141
0.131036
0.13093
0.130825
0.13072
0.130617
0.130514
0.130412
0.130312
0.130213
0.130116
0.13002
0.129926
0.129833
0.129741
0.12965
0.129561
0.129471
0.129382
0.129293
0.129203
0.129112
0.12902
0.128927
0.128832
0.128735
0.128637
0.128536
0.128434
0.128329
0.128223
0.128116
0.128007
0.127896
0.127785
0.127674
0.127563
0.127452
0.127341
0.127232
0.127124
0.127018
0.126913
0.126811
0.126711
0.126613
0.126517
0.126424
0.126332
0.126243
0.126155
0.126069
0.125984
0.1259
0.125817
0.125734
0.125651
0.125568
0.125484
0.1254
0.125315
0.125229
0.125141
0.125053
0.124964
0.124874
0.124783
0.124692
0.124599
0.124507
0.124414
0.124322
0.12423
0.124138
0.124047
0.123957
0.123867
0.123779
0.123692
0.123605
0.123519
0.123435
0.123351
0.123267
0.123185
0.123102
0.12302
0.122937
0.122855
0.122772
0.122689
0.122606
0.122522
0.122438
0.122354
0.122269
0.122184
0.122099
0.122015
0.121931
0.121848
0.121765
0.121684
0.121604
0.121526
0.12145
0.121376
0.121304
0.121234
0.121168
0.121103
0.121042
0.120983
0.120927
0.120873
0.120822
0.120774
0.120728
0.120685
0.120645
0.120607
0.120571
0.120538
0.120507
0.120479
0.120453
0.12043
0.12041
0.120392
0.120378
0.120367
0.120359
0.120355
0.120355
0.1
0.0999876
0.0999769
0.0999692
0.099962
0.0999512
0.0999331
0.0999061
0.0998715
0.0998333
0.0997969
0.0997682
0.0997521
0.099752
0.0997695
0.099805
0.0998581
0.099928
0.100014
0.100115
0.100229
0.100356
0.100491
0.100633
0.100778
0.100923
0.101065
0.101204
0.101338
0.101468
0.101595
0.10172
0.101845
0.101971
0.1021
0.102233
0.102372
0.102518
0.102673
0.102838
0.103015
0.103205
0.103408
0.103626
0.103858
0.104103
0.104361
0.104628
0.104904
0.105186
0.105474
0.105764
0.106055
0.106347
0.106638
0.106929
0.107218
0.107507
0.107796
0.108086
0.108378
0.108673
0.108973
0.109279
0.109593
0.109915
0.110248
0.110592
0.110949
0.111317
0.111699
0.112094
0.1125
0.112919
0.113349
0.113788
0.114235
0.11469
0.11515
0.115613
0.11608
0.116547
0.117014
0.117481
0.117945
0.118408
0.118868
0.119326
0.119782
0.120235
0.120687
0.121138
0.121588
0.122038
0.122489
0.12294
0.123393
0.123848
0.124304
0.124762
0.125221
0.125682
0.126143
0.126604
0.127064
0.127521
0.127976
0.128427
0.128872
0.129311
0.129742
0.130163
0.130575
0.130976
0.131364
0.131741
0.132105
0.132455
0.132792
0.133116
0.133427
0.133725
0.134012
0.134286
0.134551
0.134805
0.13505
0.135288
0.135517
0.135741
0.135958
0.13617
0.136378
0.136582
0.136781
0.136978
0.13717
0.137359
0.137544
0.137725
0.137901
0.138073
0.138238
0.138398
0.138551
0.138696
0.138833
0.138962
0.139082
0.139192
0.139293
0.139383
0.139463
0.139534
0.139594
0.139645
0.139687
0.13972
0.139745
0.139763
0.139774
0.13978
0.13978
0.139776
0.139769
0.139759
0.139748
0.139735
0.139722
0.139708
0.139695
0.139682
0.139669
0.139657
0.139646
0.139635
0.139624
0.139612
0.1396
0.139587
0.139571
0.139554
0.139533
0.139509
0.139481
0.139449
0.139411
0.139369
0.139322
0.139268
0.13921
0.139146
0.139077
0.139002
0.138923
0.138839
0.138752
0.138661
0.138567
0.13847
0.138372
0.138272
0.138172
0.13807
0.137969
0.137868
0.137767
0.137667
0.137567
0.137469
0.137371
0.137273
0.137176
0.137079
0.136981
0.136883
0.136784
0.136683
0.136581
0.136477
0.13637
0.136261
0.136148
0.136033
0.135915
0.135793
0.135669
0.135542
0.135413
0.135281
0.135147
0.135012
0.134876
0.13474
0.134603
0.134467
0.134332
0.134199
0.134068
0.133939
0.133813
0.13369
0.133569
0.133452
0.133339
0.133228
0.13312
0.133016
0.132913
0.132813
0.132715
0.132619
0.132523
0.132428
0.132334
0.132239
0.132144
0.132049
0.131952
0.131855
0.131756
0.131656
0.131555
0.131453
0.13135
0.131245
0.131141
0.131036
0.130931
0.130826
0.130721
0.130618
0.130515
0.130413
0.130313
0.130215
0.130118
0.130022
0.129928
0.129835
0.129744
0.129654
0.129564
0.129475
0.129386
0.129296
0.129207
0.129116
0.129024
0.128931
0.128837
0.12874
0.128642
0.128542
0.128439
0.128335
0.128229
0.128122
0.128013
0.127903
0.127792
0.127681
0.127569
0.127458
0.127348
0.127239
0.127131
0.127025
0.12692
0.126818
0.126718
0.12662
0.126524
0.12643
0.126339
0.12625
0.126162
0.126076
0.125991
0.125906
0.125823
0.12574
0.125657
0.125574
0.12549
0.125405
0.12532
0.125234
0.125147
0.125058
0.124969
0.124879
0.124788
0.124696
0.124603
0.124511
0.124418
0.124325
0.124233
0.124141
0.12405
0.123959
0.12387
0.123781
0.123693
0.123607
0.123521
0.123436
0.123352
0.123268
0.123185
0.123102
0.12302
0.122937
0.122854
0.122772
0.122688
0.122605
0.122521
0.122437
0.122352
0.122267
0.122182
0.122097
0.122012
0.121928
0.121845
0.121762
0.121681
0.121601
0.121523
0.121446
0.121372
0.1213
0.121231
0.121164
0.121099
0.121038
0.120979
0.120922
0.120869
0.120818
0.12077
0.120724
0.120681
0.12064
0.120602
0.120566
0.120533
0.120502
0.120474
0.120448
0.120425
0.120405
0.120388
0.120373
0.120362
0.120354
0.12035
0.12035
0.1
0.099988
0.0999776
0.0999701
0.0999629
0.0999522
0.0999341
0.0999072
0.0998727
0.0998347
0.0997986
0.0997702
0.0997543
0.0997543
0.0997719
0.0998075
0.0998605
0.0999304
0.100016
0.100117
0.100231
0.100357
0.100492
0.100634
0.100778
0.100923
0.101065
0.101203
0.101337
0.101467
0.101593
0.101718
0.101843
0.101969
0.102098
0.102231
0.102369
0.102515
0.10267
0.102835
0.103011
0.103201
0.103404
0.103622
0.103853
0.104098
0.104355
0.104622
0.104898
0.10518
0.105467
0.105756
0.106047
0.106339
0.10663
0.106921
0.10721
0.107499
0.107788
0.108078
0.10837
0.108665
0.108965
0.109272
0.109586
0.109909
0.110242
0.110587
0.110943
0.111313
0.111695
0.11209
0.112498
0.112917
0.113347
0.113787
0.114235
0.11469
0.11515
0.115614
0.116081
0.116549
0.117017
0.117484
0.117949
0.118412
0.118873
0.119332
0.119788
0.120242
0.120695
0.121146
0.121597
0.122048
0.1225
0.122952
0.123406
0.123861
0.124318
0.124776
0.125236
0.125697
0.126159
0.12662
0.127081
0.127539
0.127994
0.128445
0.12889
0.129329
0.12976
0.130182
0.130593
0.130994
0.131383
0.131759
0.132123
0.132473
0.13281
0.133134
0.133445
0.133743
0.13403
0.134305
0.134569
0.134823
0.135069
0.135306
0.135536
0.135759
0.135977
0.136189
0.136397
0.1366
0.1368
0.136996
0.137188
0.137377
0.137562
0.137742
0.137918
0.138089
0.138255
0.138414
0.138567
0.138712
0.138849
0.138978
0.139097
0.139207
0.139307
0.139397
0.139478
0.139548
0.139608
0.139659
0.139701
0.139734
0.139759
0.139777
0.139788
0.139794
0.139794
0.13979
0.139783
0.139773
0.139762
0.139749
0.139736
0.139722
0.139708
0.139695
0.139683
0.13967
0.139659
0.139648
0.139636
0.139625
0.139612
0.139598
0.139583
0.139565
0.139544
0.13952
0.139492
0.139459
0.139422
0.139379
0.139332
0.139278
0.13922
0.139156
0.139086
0.139012
0.138932
0.138849
0.138761
0.13867
0.138576
0.13848
0.138381
0.138281
0.13818
0.138079
0.137977
0.137876
0.137775
0.137675
0.137575
0.137476
0.137378
0.13728
0.137182
0.137085
0.136987
0.136889
0.136789
0.136688
0.136586
0.136481
0.136374
0.136265
0.136152
0.136037
0.135919
0.135797
0.135673
0.135546
0.135416
0.135284
0.13515
0.135015
0.134879
0.134743
0.134606
0.13447
0.134336
0.134202
0.134071
0.133942
0.133816
0.133693
0.133572
0.133455
0.133341
0.133231
0.133123
0.133018
0.132916
0.132816
0.132717
0.132621
0.132525
0.13243
0.132336
0.132241
0.132147
0.132051
0.131955
0.131857
0.131759
0.131659
0.131558
0.131456
0.131353
0.131249
0.131144
0.131039
0.130935
0.13083
0.130726
0.130622
0.13052
0.130418
0.130319
0.13022
0.130123
0.130028
0.129934
0.129842
0.12975
0.12966
0.129571
0.129482
0.129393
0.129304
0.129214
0.129124
0.129032
0.128939
0.128845
0.128749
0.12865
0.12855
0.128448
0.128344
0.128238
0.128131
0.128022
0.127912
0.127802
0.127691
0.12758
0.127469
0.127359
0.127249
0.127142
0.127035
0.126931
0.126828
0.126728
0.12663
0.126534
0.126441
0.126349
0.12626
0.126172
0.126086
0.126
0.125916
0.125833
0.125749
0.125666
0.125583
0.125499
0.125414
0.125329
0.125242
0.125155
0.125066
0.124977
0.124886
0.124795
0.124703
0.124611
0.124518
0.124425
0.124332
0.124239
0.124147
0.124056
0.123965
0.123875
0.123786
0.123698
0.123611
0.123525
0.123439
0.123355
0.123271
0.123188
0.123105
0.123022
0.122939
0.122856
0.122773
0.12269
0.122606
0.122522
0.122437
0.122352
0.122267
0.122182
0.122097
0.122012
0.121928
0.121844
0.121761
0.12168
0.1216
0.121521
0.121445
0.121371
0.121298
0.121229
0.121162
0.121097
0.121035
0.120976
0.12092
0.120866
0.120815
0.120767
0.120721
0.120678
0.120637
0.120599
0.120563
0.12053
0.120499
0.12047
0.120445
0.120421
0.120401
0.120384
0.120369
0.120358
0.12035
0.120346
0.120346
0.1
0.0999886
0.0999788
0.0999716
0.0999646
0.0999538
0.0999358
0.099909
0.0998748
0.0998371
0.0998014
0.0997734
0.0997579
0.0997582
0.099776
0.0998116
0.0998646
0.0999343
0.10002
0.10012
0.100234
0.10036
0.100495
0.100636
0.10078
0.100923
0.101065
0.101203
0.101336
0.101465
0.101591
0.101716
0.10184
0.101966
0.102094
0.102226
0.102365
0.10251
0.102664
0.102829
0.103005
0.103194
0.103397
0.103614
0.103845
0.104089
0.104346
0.104612
0.104887
0.105169
0.105455
0.105744
0.106035
0.106326
0.106617
0.106907
0.107196
0.107485
0.107774
0.108064
0.108356
0.108652
0.108952
0.109259
0.109574
0.109898
0.110232
0.110577
0.110935
0.111305
0.111688
0.112084
0.112493
0.112913
0.113344
0.113785
0.114234
0.114689
0.115151
0.115616
0.116083
0.116552
0.117021
0.117489
0.117955
0.11842
0.118882
0.119341
0.119799
0.120254
0.120708
0.121161
0.121613
0.122065
0.122518
0.122972
0.123427
0.123883
0.124341
0.124801
0.125262
0.125724
0.126186
0.126649
0.12711
0.127568
0.128024
0.128475
0.128921
0.12936
0.12979
0.130212
0.130624
0.131024
0.131413
0.13179
0.132153
0.132503
0.13284
0.133164
0.133475
0.133774
0.13406
0.134335
0.134599
0.134854
0.135099
0.135337
0.135567
0.13579
0.136007
0.13622
0.136427
0.136631
0.13683
0.137026
0.137218
0.137406
0.137591
0.137771
0.137947
0.138118
0.138283
0.138441
0.138594
0.138738
0.138875
0.139003
0.139122
0.139231
0.139331
0.139421
0.139501
0.139571
0.139632
0.139682
0.139724
0.139757
0.139782
0.1398
0.139811
0.139816
0.139817
0.139813
0.139806
0.139796
0.139784
0.139771
0.139758
0.139744
0.13973
0.139717
0.139704
0.139692
0.13968
0.139668
0.139656
0.139644
0.139631
0.139617
0.139601
0.139583
0.139562
0.139537
0.139509
0.139476
0.139438
0.139395
0.139347
0.139294
0.139235
0.139171
0.139101
0.139027
0.138947
0.138864
0.138776
0.138685
0.138591
0.138494
0.138395
0.138295
0.138194
0.138093
0.137991
0.137889
0.137788
0.137688
0.137588
0.137488
0.13739
0.137291
0.137194
0.137096
0.136997
0.136899
0.136799
0.136698
0.136595
0.13649
0.136383
0.136273
0.13616
0.136045
0.135926
0.135805
0.13568
0.135553
0.135423
0.135291
0.135158
0.135022
0.134886
0.13475
0.134614
0.134478
0.134343
0.13421
0.134078
0.133949
0.133823
0.1337
0.133579
0.133462
0.133348
0.133237
0.133129
0.133024
0.132922
0.132822
0.132724
0.132627
0.132531
0.132436
0.132342
0.132247
0.132152
0.132057
0.13196
0.131863
0.131765
0.131665
0.131564
0.131462
0.131359
0.131256
0.131151
0.131047
0.130942
0.130838
0.130734
0.13063
0.130528
0.130427
0.130328
0.130229
0.130133
0.130038
0.129944
0.129852
0.12976
0.12967
0.129581
0.129492
0.129403
0.129314
0.129225
0.129135
0.129043
0.128951
0.128856
0.12876
0.128662
0.128562
0.12846
0.128357
0.128251
0.128144
0.128035
0.127926
0.127815
0.127704
0.127593
0.127483
0.127373
0.127264
0.127156
0.12705
0.126945
0.126843
0.126742
0.126644
0.126549
0.126455
0.126363
0.126274
0.126185
0.126099
0.126014
0.125929
0.125845
0.125762
0.125679
0.125595
0.125511
0.125426
0.12534
0.125254
0.125166
0.125077
0.124988
0.124897
0.124806
0.124713
0.124621
0.124528
0.124434
0.124341
0.124248
0.124156
0.124064
0.123973
0.123883
0.123794
0.123705
0.123618
0.123531
0.123446
0.123361
0.123277
0.123193
0.12311
0.123027
0.122943
0.12286
0.122777
0.122693
0.122609
0.122524
0.12244
0.122355
0.122269
0.122184
0.122099
0.122013
0.121929
0.121845
0.121762
0.121681
0.1216
0.121522
0.121445
0.121371
0.121298
0.121228
0.121161
0.121096
0.121034
0.120975
0.120919
0.120865
0.120814
0.120765
0.120719
0.120676
0.120635
0.120596
0.12056
0.120527
0.120496
0.120468
0.120442
0.120419
0.120398
0.120381
0.120366
0.120355
0.120347
0.120343
0.120343
0.1
0.0999895
0.0999805
0.0999737
0.0999669
0.0999561
0.0999381
0.0999114
0.0998776
0.0998404
0.0998053
0.0997779
0.099763
0.0997636
0.0997816
0.0998173
0.0998703
0.0999398
0.100025
0.100125
0.100239
0.100364
0.100498
0.100638
0.100781
0.100924
0.101065
0.101202
0.101335
0.101463
0.101589
0.101712
0.101836
0.101961
0.102089
0.102221
0.102358
0.102503
0.102656
0.10282
0.102996
0.103184
0.103387
0.103603
0.103833
0.104077
0.104332
0.104598
0.104872
0.105153
0.105438
0.105727
0.106017
0.106307
0.106598
0.106888
0.107177
0.107465
0.107754
0.108045
0.108337
0.108633
0.108934
0.109242
0.109557
0.109882
0.110217
0.110564
0.110923
0.111294
0.111679
0.112076
0.112486
0.112907
0.11334
0.113782
0.114232
0.114689
0.115152
0.115618
0.116087
0.116557
0.117027
0.117496
0.117964
0.11843
0.118893
0.119354
0.119814
0.120271
0.120727
0.121181
0.121635
0.122089
0.122544
0.123
0.123456
0.123915
0.124374
0.124836
0.125298
0.125761
0.126225
0.126688
0.12715
0.127609
0.128066
0.128517
0.128963
0.129402
0.129833
0.130255
0.130667
0.131067
0.131456
0.131832
0.132196
0.132546
0.132883
0.133207
0.133518
0.133816
0.134103
0.134378
0.134642
0.134897
0.135142
0.13538
0.13561
0.135833
0.136051
0.136263
0.13647
0.136674
0.136873
0.137068
0.13726
0.137448
0.137632
0.137812
0.137987
0.138157
0.138321
0.13848
0.138631
0.138775
0.138911
0.139038
0.139157
0.139266
0.139365
0.139455
0.139534
0.139604
0.139664
0.139714
0.139756
0.139789
0.139814
0.139831
0.139842
0.139848
0.139848
0.139844
0.139837
0.139827
0.139816
0.139803
0.139789
0.139775
0.139761
0.139747
0.139734
0.139721
0.139708
0.139696
0.139684
0.139671
0.139658
0.139643
0.139627
0.139608
0.139586
0.139561
0.139532
0.139498
0.13946
0.139417
0.139369
0.139315
0.139256
0.139192
0.139122
0.139047
0.138968
0.138884
0.138796
0.138705
0.138611
0.138514
0.138415
0.138315
0.138214
0.138112
0.13801
0.137908
0.137807
0.137706
0.137605
0.137506
0.137406
0.137308
0.137209
0.137111
0.137012
0.136913
0.136813
0.136711
0.136608
0.136503
0.136395
0.136285
0.136172
0.136056
0.135938
0.135816
0.135691
0.135564
0.135434
0.135302
0.135169
0.135034
0.134898
0.134761
0.134625
0.134489
0.134354
0.134221
0.13409
0.133961
0.133834
0.133711
0.13359
0.133473
0.133359
0.133248
0.13314
0.133035
0.132932
0.132832
0.132733
0.132636
0.132541
0.132446
0.132351
0.132256
0.132161
0.132066
0.13197
0.131872
0.131774
0.131674
0.131574
0.131472
0.131369
0.131266
0.131162
0.131058
0.130953
0.130849
0.130745
0.130642
0.13054
0.13044
0.13034
0.130242
0.130146
0.130051
0.129957
0.129865
0.129774
0.129684
0.129595
0.129506
0.129417
0.129329
0.129239
0.129149
0.129058
0.128965
0.128871
0.128775
0.128677
0.128578
0.128476
0.128372
0.128267
0.12816
0.128052
0.127942
0.127832
0.127721
0.127611
0.1275
0.12739
0.127281
0.127174
0.127067
0.126963
0.126861
0.12676
0.126662
0.126566
0.126472
0.126381
0.126291
0.126202
0.126116
0.12603
0.125946
0.125862
0.125778
0.125694
0.12561
0.125526
0.125441
0.125355
0.125268
0.125181
0.125092
0.125002
0.124911
0.124819
0.124727
0.124634
0.124541
0.124447
0.124354
0.124261
0.124168
0.124076
0.123984
0.123894
0.123804
0.123715
0.123628
0.123541
0.123455
0.12337
0.123285
0.123201
0.123117
0.123034
0.12295
0.122866
0.122783
0.122699
0.122614
0.122529
0.122444
0.122359
0.122273
0.122188
0.122102
0.122017
0.121932
0.121848
0.121765
0.121683
0.121603
0.121524
0.121447
0.121372
0.1213
0.12123
0.121162
0.121097
0.121035
0.120975
0.120919
0.120865
0.120813
0.120765
0.120718
0.120675
0.120634
0.120595
0.120559
0.120526
0.120494
0.120466
0.12044
0.120417
0.120396
0.120379
0.120364
0.120353
0.120345
0.12034
0.12034
0.1
0.0999907
0.0999826
0.0999764
0.0999697
0.099959
0.099941
0.0999145
0.0998811
0.0998446
0.0998103
0.0997837
0.0997694
0.0997705
0.0997888
0.0998245
0.0998774
0.0999468
0.100032
0.100131
0.100244
0.100369
0.100502
0.100641
0.100783
0.100925
0.101065
0.101201
0.101332
0.10146
0.101585
0.101708
0.101831
0.101955
0.102082
0.102213
0.10235
0.102494
0.102646
0.102809
0.102984
0.103172
0.103373
0.103589
0.103819
0.104061
0.104316
0.10458
0.104853
0.105133
0.105417
0.105705
0.105994
0.106284
0.106574
0.106863
0.107151
0.10744
0.107729
0.10802
0.108312
0.108609
0.108911
0.109219
0.109536
0.109862
0.110199
0.110547
0.110907
0.11128
0.111666
0.112065
0.112477
0.1129
0.113334
0.113778
0.11423
0.114688
0.115153
0.11562
0.116091
0.116563
0.117034
0.117505
0.117975
0.118443
0.118908
0.119371
0.119833
0.120292
0.12075
0.121207
0.121664
0.12212
0.122577
0.123035
0.123494
0.123955
0.124417
0.12488
0.125344
0.125809
0.126274
0.126739
0.127202
0.127662
0.128119
0.128571
0.129018
0.129457
0.129888
0.13031
0.130722
0.131122
0.131511
0.131887
0.13225
0.132601
0.132937
0.133261
0.133572
0.133871
0.134157
0.134432
0.134697
0.134952
0.135198
0.135435
0.135665
0.135889
0.136106
0.136318
0.136526
0.136729
0.136928
0.137123
0.137314
0.137501
0.137685
0.137864
0.138038
0.138207
0.138371
0.138528
0.138679
0.138822
0.138957
0.139084
0.139201
0.139309
0.139408
0.139497
0.139576
0.139645
0.139705
0.139755
0.139796
0.139829
0.139854
0.139871
0.139883
0.139888
0.139888
0.139884
0.139877
0.139867
0.139855
0.139842
0.139828
0.139814
0.139799
0.139785
0.139771
0.139758
0.139745
0.139732
0.139719
0.139706
0.139692
0.139676
0.139659
0.139639
0.139617
0.139591
0.139561
0.139527
0.139489
0.139445
0.139396
0.139342
0.139283
0.139218
0.139148
0.139073
0.138994
0.13891
0.138822
0.13873
0.138636
0.138539
0.13844
0.13834
0.138238
0.138136
0.138034
0.137932
0.13783
0.137729
0.137628
0.137528
0.137428
0.137329
0.13723
0.137131
0.137032
0.136932
0.136831
0.136729
0.136625
0.136519
0.136412
0.136301
0.136188
0.136072
0.135953
0.135831
0.135706
0.135579
0.135449
0.135317
0.135184
0.135049
0.134913
0.134776
0.13464
0.134504
0.13437
0.134237
0.134105
0.133976
0.13385
0.133726
0.133606
0.133488
0.133374
0.133263
0.133155
0.133049
0.132946
0.132846
0.132747
0.13265
0.132554
0.132458
0.132364
0.132269
0.132174
0.132078
0.131982
0.131885
0.131787
0.131687
0.131587
0.131485
0.131383
0.13128
0.131176
0.131072
0.130968
0.130864
0.13076
0.130658
0.130556
0.130456
0.130356
0.130259
0.130162
0.130068
0.129974
0.129882
0.129791
0.129701
0.129612
0.129523
0.129435
0.129346
0.129257
0.129167
0.129076
0.128983
0.128889
0.128794
0.128696
0.128596
0.128495
0.128392
0.128286
0.12818
0.128072
0.127962
0.127853
0.127742
0.127631
0.127521
0.127411
0.127303
0.127195
0.127089
0.126984
0.126882
0.126782
0.126683
0.126587
0.126493
0.126401
0.126311
0.126223
0.126136
0.12605
0.125965
0.125881
0.125797
0.125713
0.125629
0.125544
0.125459
0.125373
0.125286
0.125198
0.125109
0.125019
0.124928
0.124836
0.124743
0.12465
0.124557
0.124463
0.124369
0.124276
0.124183
0.12409
0.123998
0.123907
0.123817
0.123728
0.12364
0.123553
0.123466
0.123381
0.123296
0.123211
0.123127
0.123043
0.122959
0.122875
0.122791
0.122706
0.122622
0.122537
0.122451
0.122365
0.12228
0.122194
0.122108
0.122022
0.121937
0.121853
0.12177
0.121687
0.121607
0.121528
0.121451
0.121376
0.121303
0.121233
0.121165
0.1211
0.121037
0.120977
0.12092
0.120866
0.120814
0.120765
0.120719
0.120675
0.120634
0.120595
0.120559
0.120525
0.120494
0.120465
0.120439
0.120416
0.120395
0.120377
0.120363
0.120351
0.120343
0.120339
0.120339
0.1
0.0999921
0.0999851
0.0999795
0.0999732
0.0999624
0.0999445
0.0999183
0.0998854
0.0998497
0.0998164
0.0997907
0.0997771
0.0997788
0.0997974
0.0998333
0.0998861
0.0999552
0.10004
0.100139
0.100251
0.100374
0.100506
0.100644
0.100785
0.100926
0.101064
0.101199
0.10133
0.101457
0.10158
0.101702
0.101824
0.101947
0.102073
0.102203
0.102339
0.102482
0.102634
0.102796
0.10297
0.103157
0.103357
0.103572
0.1038
0.104042
0.104295
0.104558
0.10483
0.105108
0.105391
0.105678
0.105966
0.106255
0.106544
0.106832
0.107121
0.107409
0.107698
0.107989
0.108282
0.10858
0.108882
0.109192
0.10951
0.109837
0.110176
0.110525
0.110888
0.111263
0.111651
0.112052
0.112466
0.112891
0.113327
0.113773
0.114227
0.114688
0.115154
0.115624
0.116096
0.11657
0.117043
0.117517
0.117988
0.118458
0.118926
0.119392
0.119856
0.120318
0.120779
0.121239
0.121699
0.122158
0.122618
0.123079
0.123541
0.124004
0.124469
0.124934
0.125401
0.125868
0.126335
0.126801
0.127265
0.127727
0.128185
0.128638
0.129085
0.129524
0.129956
0.130378
0.130789
0.13119
0.131578
0.131954
0.132317
0.132667
0.133004
0.133328
0.133639
0.133938
0.134224
0.134499
0.134764
0.135019
0.135265
0.135503
0.135733
0.135956
0.136174
0.136386
0.136593
0.136796
0.136994
0.137189
0.13738
0.137567
0.137749
0.137927
0.138101
0.138269
0.138432
0.138588
0.138737
0.138879
0.139013
0.139139
0.139255
0.139363
0.139461
0.139549
0.139627
0.139696
0.139755
0.139805
0.139846
0.139878
0.139903
0.13992
0.139931
0.139937
0.139937
0.139933
0.139926
0.139916
0.139904
0.13989
0.139876
0.139861
0.139846
0.139831
0.139817
0.139803
0.139789
0.139776
0.139762
0.139748
0.139733
0.139716
0.139698
0.139677
0.139654
0.139627
0.139597
0.139562
0.139523
0.139479
0.139429
0.139375
0.139315
0.13925
0.13918
0.139105
0.139025
0.138941
0.138853
0.138761
0.138667
0.13857
0.138471
0.13837
0.138268
0.138166
0.138063
0.137961
0.137858
0.137757
0.137655
0.137554
0.137454
0.137354
0.137255
0.137155
0.137055
0.136955
0.136853
0.136751
0.136646
0.13654
0.136432
0.136321
0.136207
0.136091
0.135972
0.13585
0.135725
0.135598
0.135468
0.135336
0.135203
0.135068
0.134932
0.134796
0.13466
0.134524
0.134389
0.134256
0.134125
0.133996
0.133869
0.133746
0.133625
0.133507
0.133393
0.133281
0.133173
0.133067
0.132964
0.132863
0.132764
0.132667
0.13257
0.132475
0.13238
0.132285
0.13219
0.132094
0.131998
0.131901
0.131802
0.131703
0.131603
0.131502
0.131399
0.131297
0.131193
0.131089
0.130986
0.130882
0.130779
0.130677
0.130575
0.130475
0.130376
0.130279
0.130182
0.130088
0.129995
0.129903
0.129812
0.129722
0.129633
0.129544
0.129456
0.129367
0.129278
0.129188
0.129097
0.129005
0.128911
0.128815
0.128718
0.128618
0.128517
0.128414
0.128309
0.128203
0.128095
0.127986
0.127876
0.127766
0.127656
0.127546
0.127436
0.127327
0.12722
0.127114
0.12701
0.126907
0.126807
0.126708
0.126612
0.126518
0.126426
0.126335
0.126247
0.126159
0.126073
0.125988
0.125904
0.125819
0.125735
0.125651
0.125566
0.12548
0.125394
0.125307
0.125218
0.125129
0.125039
0.124948
0.124855
0.124763
0.124669
0.124575
0.124481
0.124387
0.124294
0.1242
0.124107
0.124015
0.123924
0.123834
0.123744
0.123655
0.123568
0.123481
0.123395
0.123309
0.123224
0.123139
0.123055
0.12297
0.122886
0.122801
0.122716
0.122631
0.122546
0.12246
0.122374
0.122288
0.122201
0.122115
0.12203
0.121944
0.12186
0.121776
0.121694
0.121613
0.121533
0.121456
0.121381
0.121308
0.121237
0.121169
0.121103
0.12104
0.12098
0.120923
0.120868
0.120816
0.120767
0.120721
0.120676
0.120635
0.120596
0.120559
0.120525
0.120494
0.120465
0.120439
0.120415
0.120394
0.120377
0.120362
0.120351
0.120342
0.120338
0.120338
0.1
0.0999937
0.099988
0.0999832
0.0999771
0.0999664
0.0999485
0.0999226
0.0998904
0.0998557
0.0998234
0.0997987
0.0997861
0.0997885
0.0998075
0.0998435
0.0998962
0.099965
0.100049
0.100147
0.100259
0.100381
0.100512
0.100648
0.100787
0.100927
0.101064
0.101197
0.101327
0.101452
0.101575
0.101696
0.101816
0.101938
0.102063
0.102192
0.102327
0.102469
0.102619
0.10278
0.102953
0.103139
0.103338
0.103551
0.103778
0.104018
0.10427
0.104532
0.104802
0.105079
0.105361
0.105646
0.105933
0.10622
0.106508
0.106796
0.107084
0.107372
0.107662
0.107952
0.108246
0.108545
0.108848
0.109159
0.109479
0.109808
0.110148
0.1105
0.110865
0.111242
0.111633
0.112037
0.112453
0.112881
0.113319
0.113767
0.114224
0.114687
0.115155
0.115627
0.116102
0.116578
0.117054
0.11753
0.118004
0.118477
0.118948
0.119417
0.119884
0.120349
0.120814
0.121277
0.12174
0.122203
0.122667
0.123131
0.123596
0.124063
0.12453
0.124999
0.125468
0.125937
0.126407
0.126875
0.127341
0.127804
0.128263
0.128716
0.129164
0.129604
0.130036
0.130458
0.130869
0.13127
0.131658
0.132034
0.132397
0.132747
0.133083
0.133407
0.133718
0.134016
0.134303
0.134579
0.134843
0.135099
0.135345
0.135582
0.135813
0.136036
0.136254
0.136466
0.136673
0.136875
0.137073
0.137267
0.137457
0.137643
0.137825