# vtk DataFile Version 3.0
LBM Fluid Grid
ASCII
DATASET STRUCTURED_POINTS
DIMENSIONS 400 150 1
ORIGIN 0 0 0
SPACING 1 1 1
POINT_DATA 60000
SCALARS VelocityMagnitude double 1
LOOKUP_TABLE default
0.1
0.100209
0.100303
0.100297
0.100232
0.100151
0.10009
0.100067
0.100085
0.100133
0.100197
0.100261
0.100317
0.100364
0.100405
0.100451
0.100513
0.100597
0.100708
0.100845
0.101001
0.101169
0.101339
0.101501
0.101649
0.101777
0.101882
0.101963
0.102022
0.102062
0.102086
0.1021
0.10211
0.10212
0.102136
0.102162
0.102203
0.102262
0.10234
0.10244
0.102563
0.102708
0.102876
0.103066
0.103278
0.10351
0.103761
0.104029
0.104312
0.104607
0.10491
0.105218
0.105529
0.105839
0.106146
0.10645
0.106751
0.107049
0.107346
0.107644
0.107945
0.108253
0.108569
0.108897
0.109238
0.109594
0.109966
0.110355
0.110762
0.111186
0.111628
0.112087
0.112561
0.113049
0.11355
0.114059
0.114576
0.115097
0.115619
0.116139
0.116654
0.117163
0.117663
0.118152
0.11863
0.119095
0.119549
0.119992
0.120424
0.120848
0.121265
0.121678
0.122087
0.122496
0.122906
0.12332
0.123737
0.12416
0.124589
0.125024
0.125466
0.125914
0.126366
0.126823
0.127282
0.127742
0.128201
0.128657
0.129107
0.129551
0.129985
0.130409
0.13082
0.131216
0.131597
0.131962
0.132309
0.13264
0.132955
0.133252
0.133535
0.133803
0.134058
0.134302
0.134536
0.134762
0.134982
0.135197
0.135409
0.135618
0.135827
0.136036
0.136246
0.136458
0.136671
0.136885
0.137102
0.137318
0.137536
0.137752
0.137967
0.138179
0.138386
0.138589
0.138784
0.138971
0.139149
0.139316
0.139471
0.139614
0.139743
0.139858
0.139959
0.140045
0.140118
0.140176
0.140221
0.140253
0.140274
0.140284
0.140285
0.140277
0.140263
0.140243
0.140218
0.140189
0.140158
0.140126
0.140092
0.140057
0.140022
0.139986
0.139949
0.139912
0.139872
0.13983
0.139785
0.139735
0.139679
0.139617
0.139547
0.139468
0.139378
0.139278
0.139165
0.13904
0.138901
0.138749
0.138583
0.138404
0.138211
0.138006
0.137789
0.137561
0.137323
0.137076
0.136823
0.136564
0.1363
0.136033
0.135765
0.135496
0.135228
0.134961
0.134696
0.134434
0.134175
0.133918
0.133665
0.133415
0.133166
0.13292
0.132674
0.132429
0.132184
0.131937
0.131688
0.131437
0.131182
0.130924
0.130661
0.130395
0.130123
0.129848
0.129568
0.129285
0.128998
0.128709
0.128419
0.128127
0.127836
0.127546
0.127257
0.126971
0.126688
0.126409
0.126134
0.125864
0.125598
0.125338
0.125082
0.12483
0.124581
0.124336
0.124092
0.12385
0.123609
0.123366
0.123122
0.122876
0.122626
0.122372
0.122114
0.121851
0.121582
0.121308
0.121029
0.120745
0.120457
0.120164
0.119869
0.119571
0.119272
0.118973
0.118674
0.118376
0.118081
0.117789
0.117501
0.117217
0.116938
0.116663
0.116394
0.116131
0.115872
0.115618
0.115369
0.115125
0.114885
0.114648
0.114416
0.114186
0.113961
0.113738
0.113519
0.113304
0.113093
0.112885
0.112683
0.112485
0.112293
0.112106
0.111926
0.111752
0.111585
0.111424
0.111271
0.111123
0.110982
0.110847
0.110718
0.110593
0.110473
0.110356
0.110242
0.11013
0.11002
0.109911
0.109803
0.109694
0.109586
0.109477
0.109368
0.109259
0.10915
0.10904
0.108931
0.108821
0.108712
0.108604
0.108497
0.10839
0.108284
0.108178
0.108074
0.107969
0.107865
0.10776
0.107655
0.107549
0.107442
0.107334
0.107225
0.107115
0.107003
0.106889
0.106775
0.10666
0.106544
0.106427
0.106311
0.106195
0.10608
0.105966
0.105854
0.105744
0.105636
0.10553
0.105427
0.105327
0.10523
0.105136
0.105045
0.104957
0.104873
0.104792
0.104715
0.104641
0.104571
0.104505
0.104443
0.104385
0.104331
0.104282
0.104237
0.104197
0.104162
0.104132
0.104107
0.104086
0.10407
0.104059
0.104053
0.104051
0.104053
0.104059
0.104068
0.104081
0.104096
0.104113
0.104133
0.104154
0.104176
0.104199
0.104222
0.104246
0.104269
0.104292
0.104313
0.104334
0.104352
0.104369
0.104384
0.104397
0.104407
0.104413
0.104417
0.104418
0.104416
0.104416
0.1
0.10021
0.100304
0.100298
0.100231
0.10015
0.100089
0.100067
0.100085
0.100134
0.100198
0.100263
0.100319
0.100366
0.100407
0.100454
0.100515
0.100599
0.10071
0.100847
0.101003
0.101171
0.101341
0.101504
0.101652
0.10178
0.101885
0.101966
0.102025
0.102064
0.102089
0.102103
0.102112
0.102122
0.102138
0.102164
0.102205
0.102263
0.102341
0.102441
0.102563
0.102708
0.102876
0.103066
0.103278
0.10351
0.103762
0.10403
0.104313
0.104607
0.10491
0.105219
0.10553
0.10584
0.106148
0.106452
0.106753
0.107051
0.107347
0.107645
0.107947
0.108254
0.108571
0.108899
0.109239
0.109595
0.109967
0.110356
0.110763
0.111187
0.111629
0.112088
0.112562
0.11305
0.113551
0.11406
0.114577
0.115098
0.115619
0.116139
0.116655
0.117163
0.117663
0.118152
0.11863
0.119095
0.119549
0.119991
0.120423
0.120847
0.121264
0.121676
0.122085
0.122494
0.122904
0.123316
0.123733
0.124156
0.124585
0.12502
0.125461
0.125908
0.126361
0.126817
0.127276
0.127736
0.128195
0.12865
0.129101
0.129545
0.129979
0.130403
0.130813
0.13121
0.131591
0.131956
0.132304
0.132634
0.132949
0.133246
0.133529
0.133797
0.134052
0.134296
0.13453
0.134756
0.134976
0.135191
0.135402
0.135612
0.135821
0.13603
0.13624
0.136451
0.136664
0.136879
0.137095
0.137312
0.13753
0.137746
0.137961
0.138173
0.138381
0.138583
0.138779
0.138966
0.139144
0.139311
0.139466
0.139609
0.139738
0.139854
0.139954
0.140041
0.140113
0.140171
0.140216
0.140249
0.140269
0.140279
0.14028
0.140273
0.140258
0.140238
0.140213
0.140184
0.140153
0.140121
0.140087
0.140052
0.140017
0.139981
0.139944
0.139906
0.139867
0.139825
0.13978
0.13973
0.139674
0.139612
0.139542
0.139463
0.139374
0.139273
0.139161
0.139036
0.138897
0.138745
0.138579
0.138399
0.138207
0.138001
0.137784
0.137556
0.137318
0.137072
0.136818
0.136559
0.136295
0.136028
0.13576
0.135491
0.135223
0.134956
0.134691
0.134429
0.13417
0.133914
0.133661
0.13341
0.133162
0.132916
0.13267
0.132425
0.13218
0.131933
0.131685
0.131433
0.131179
0.13092
0.130658
0.130391
0.13012
0.129844
0.129565
0.129281
0.128995
0.128706
0.128416
0.128124
0.127833
0.127543
0.127254
0.126968
0.126685
0.126406
0.126132
0.125862
0.125596
0.125336
0.12508
0.124828
0.12458
0.124334
0.124091
0.123849
0.123607
0.123365
0.123121
0.122875
0.122625
0.122372
0.122114
0.12185
0.121582
0.121308
0.121029
0.120745
0.120456
0.120164
0.119869
0.119571
0.119272
0.118973
0.118674
0.118376
0.118081
0.117789
0.117501
0.117217
0.116938
0.116664
0.116395
0.116131
0.115872
0.115619
0.11537
0.115125
0.114885
0.114649
0.114416
0.114187
0.113961
0.113739
0.11352
0.113304
0.113093
0.112886
0.112683
0.112485
0.112293
0.112107
0.111926
0.111752
0.111585
0.111425
0.111271
0.111123
0.110982
0.110847
0.110718
0.110593
0.110473
0.110356
0.110242
0.11013
0.11002
0.109911
0.109802
0.109694
0.109586
0.109477
0.109368
0.109259
0.109149
0.10904
0.10893
0.108821
0.108712
0.108604
0.108496
0.108389
0.108283
0.108178
0.108073
0.107968
0.107864
0.107759
0.107654
0.107548
0.107442
0.107334
0.107225
0.107114
0.107002
0.106889
0.106774
0.106659
0.106543
0.106427
0.10631
0.106194
0.106079
0.105966
0.105853
0.105743
0.105635
0.105529
0.105426
0.105326
0.105229
0.105135
0.105044
0.104957
0.104873
0.104792
0.104714
0.104641
0.104571
0.104505
0.104443
0.104385
0.104331
0.104282
0.104237
0.104197
0.104162
0.104132
0.104106
0.104086
0.10407
0.104059
0.104053
0.104051
0.104053
0.104059
0.104068
0.104081
0.104096
0.104113
0.104133
0.104154
0.104176
0.104199
0.104223
0.104246
0.104269
0.104292
0.104314
0.104334
0.104353
0.10437
0.104385
0.104397
0.104407
0.104414
0.104418
0.104419
0.104416
0.104416
0.1
0.100209
0.100303
0.100297
0.100232
0.100151
0.10009
0.100067
0.100085
0.100133
0.100197
0.100261
0.100317
0.100364
0.100405
0.100451
0.100513
0.100597
0.100708
0.100845
0.101001
0.101169
0.101339
0.101501
0.101649
0.101777
0.101882
0.101963
0.102022
0.102062
0.102086
0.1021
0.10211
0.10212
0.102136
0.102162
0.102203
0.102262
0.10234
0.10244
0.102563
0.102708
0.102876
0.103066
0.103278
0.10351
0.103761
0.104029
0.104312
0.104607
0.10491
0.105218
0.105529
0.105839
0.106146
0.10645
0.106751
0.107049
0.107346
0.107644
0.107945
0.108253
0.108569
0.108897
0.109238
0.109594
0.109966
0.110355
0.110762
0.111186
0.111628
0.112087
0.112561
0.113049
0.11355
0.114059
0.114576
0.115097
0.115619
0.116139
0.116654
0.117163
0.117663
0.118152
0.11863
0.119095
0.119549
0.119992
0.120424
0.120848
0.121265
0.121678
0.122087
0.122496
0.122906
0.12332
0.123737
0.12416
0.124589
0.125024
0.125466
0.125914
0.126366
0.126823
0.127282
0.127742
0.128201
0.128656
0.129107
0.129551
0.129985
0.130409
0.130819
0.131216
0.131597
0.131962
0.132309
0.13264
0.132954
0.133252
0.133535
0.133803
0.134058
0.134302
0.134536
0.134762
0.134982
0.135197
0.135408
0.135618
0.135827
0.136036
0.136246
0.136458
0.136671
0.136885
0.137101
0.137318
0.137535
0.137752
0.137967
0.138179
0.138386
0.138588
0.138784
0.138971
0.139149
0.139316
0.139471
0.139613
0.139743
0.139858
0.139959
0.140045
0.140117
0.140176
0.140221
0.140253
0.140274
0.140284
0.140285
0.140277
0.140263
0.140243
0.140218
0.140189
0.140158
0.140126
0.140092
0.140057
0.140022
0.139986
0.139949
0.139912
0.139872
0.13983
0.139785
0.139735
0.139679
0.139617
0.139547
0.139468
0.139379
0.139278
0.139166
0.13904
0.138902
0.13875
0.138584
0.138404
0.138212
0.138006
0.137789
0.137561
0.137323
0.137077
0.136823
0.136564
0.1363
0.136034
0.135765
0.135497
0.135228
0.134961
0.134697
0.134434
0.134175
0.133919
0.133666
0.133415
0.133167
0.13292
0.132675
0.13243
0.132184
0.131937
0.131689
0.131437
0.131183
0.130924
0.130662
0.130395
0.130124
0.129848
0.129568
0.129285
0.128999
0.12871
0.128419
0.128128
0.127836
0.127546
0.127257
0.126971
0.126688
0.126409
0.126134
0.125864
0.125598
0.125338
0.125082
0.12483
0.124581
0.124336
0.124092
0.12385
0.123608
0.123366
0.123122
0.122875
0.122626
0.122372
0.122114
0.12185
0.121582
0.121308
0.121029
0.120745
0.120456
0.120164
0.119869
0.119571
0.119272
0.118972
0.118673
0.118376
0.118081
0.117789
0.1175
0.117216
0.116937
0.116663
0.116394
0.11613
0.115872
0.115618
0.115369
0.115124
0.114884
0.114648
0.114415
0.114186
0.11396
0.113738
0.113519
0.113304
0.113092
0.112885
0.112682
0.112485
0.112293
0.112106
0.111926
0.111752
0.111585
0.111424
0.11127
0.111123
0.110982
0.110847
0.110718
0.110593
0.110473
0.110356
0.110242
0.11013
0.11002
0.109911
0.109803
0.109694
0.109586
0.109477
0.109368
0.109259
0.10915
0.10904
0.108931
0.108821
0.108713
0.108604
0.108497
0.10839
0.108284
0.108179
0.108074
0.107969
0.107865
0.10776
0.107655
0.107549
0.107442
0.107335
0.107225
0.107115
0.107003
0.10689
0.106775
0.10666
0.106544
0.106427
0.106311
0.106195
0.10608
0.105966
0.105854
0.105744
0.105636
0.10553
0.105427
0.105327
0.10523
0.105136
0.105045
0.104958
0.104873
0.104793
0.104715
0.104642
0.104572
0.104506
0.104443
0.104385
0.104332
0.104282
0.104238
0.104198
0.104162
0.104132
0.104107
0.104086
0.104071
0.10406
0.104053
0.104051
0.104053
0.104059
0.104068
0.104081
0.104096
0.104113
0.104133
0.104154
0.104176
0.104199
0.104223
0.104246
0.104269
0.104292
0.104314
0.104334
0.104353
0.10437
0.104384
0.104397
0.104407
0.104414
0.104418
0.104418
0.104416
0.104416
0.1
0.100207
0.100301
0.100297
0.100232
0.100152
0.100091
0.100067
0.100084
0.100131
0.100193
0.100256
0.100312
0.100358
0.100399
0.100445
0.100506
0.10059
0.100701
0.100837
0.100993
0.101161
0.10133
0.101492
0.10164
0.101768
0.101873
0.101954
0.102013
0.102053
0.102078
0.102093
0.102103
0.102114
0.10213
0.102157
0.102199
0.102258
0.102337
0.102437
0.10256
0.102706
0.102874
0.103064
0.103276
0.103509
0.10376
0.104028
0.104311
0.104605
0.104908
0.105215
0.105526
0.105835
0.106142
0.106446
0.106747
0.107044
0.107341
0.107639
0.10794
0.108248
0.108564
0.108892
0.109233
0.109589
0.109961
0.110351
0.110758
0.111182
0.111625
0.112084
0.112558
0.113047
0.113547
0.114057
0.114574
0.115095
0.115617
0.116137
0.116653
0.117162
0.117662
0.118151
0.11863
0.119096
0.11955
0.119993
0.120427
0.120852
0.12127
0.121683
0.122094
0.122504
0.122915
0.123329
0.123748
0.124172
0.124602
0.125038
0.125481
0.125929
0.126382
0.12684
0.127299
0.127759
0.128219
0.128675
0.129126
0.129569
0.130004
0.130427
0.130838
0.131234
0.131615
0.131979
0.132327
0.132658
0.132972
0.13327
0.133552
0.133821
0.134076
0.13432
0.134555
0.134781
0.135001
0.135216
0.135427
0.135637
0.135846
0.136055
0.136265
0.136476
0.136689
0.136904
0.13712
0.137336
0.137553
0.137769
0.137984
0.138195
0.138402
0.138604
0.138799
0.138986
0.139163
0.13933
0.139485
0.139627
0.139756
0.139871
0.139972
0.140058
0.14013
0.140189
0.140234
0.140266
0.140287
0.140298
0.140299
0.140291
0.140277
0.140257
0.140233
0.140205
0.140174
0.140141
0.140107
0.140073
0.140037
0.140002
0.139965
0.139927
0.139887
0.139845
0.1398
0.13975
0.139694
0.139632
0.139561
0.139482
0.139392
0.139292
0.139179
0.139054
0.138915
0.138763
0.138597
0.138418
0.138226
0.13802
0.137803
0.137576
0.137338
0.137092
0.136839
0.136579
0.136316
0.136049
0.135781
0.135512
0.135244
0.134977
0.134712
0.13445
0.13419
0.133934
0.13368
0.13343
0.133181
0.132934
0.132688
0.132443
0.132197
0.13195
0.131701
0.131449
0.131194
0.130936
0.130673
0.130406
0.130134
0.129858
0.129579
0.129295
0.129008
0.128719
0.128429
0.128137
0.127845
0.127555
0.127266
0.126979
0.126696
0.126416
0.126141
0.125871
0.125605
0.125344
0.125087
0.124834
0.124585
0.124339
0.124096
0.123853
0.123611
0.123368
0.123124
0.122877
0.122627
0.122373
0.122114
0.121851
0.121582
0.121308
0.121029
0.120745
0.120456
0.120164
0.119868
0.11957
0.119271
0.118972
0.118673
0.118375
0.11808
0.117788
0.117499
0.117215
0.116936
0.116662
0.116392
0.116129
0.11587
0.115616
0.115367
0.115123
0.114882
0.114646
0.114413
0.114184
0.113958
0.113736
0.113517
0.113302
0.113091
0.112884
0.112681
0.112484
0.112291
0.112105
0.111925
0.111751
0.111584
0.111424
0.11127
0.111123
0.110982
0.110847
0.110718
0.110593
0.110473
0.110356
0.110242
0.11013
0.11002
0.109912
0.109803
0.109695
0.109587
0.109478
0.10937
0.10926
0.109151
0.109042
0.108932
0.108823
0.108714
0.108606
0.108499
0.108392
0.108286
0.108181
0.108076
0.107971
0.107867
0.107762
0.107657
0.107551
0.107445
0.107337
0.107228
0.107117
0.107005
0.106892
0.106777
0.106662
0.106546
0.10643
0.106313
0.106198
0.106083
0.105969
0.105857
0.105746
0.105638
0.105533
0.10543
0.105329
0.105232
0.105138
0.105047
0.10496
0.104876
0.104795
0.104718
0.104644
0.104574
0.104508
0.104445
0.104387
0.104334
0.104284
0.104239
0.104199
0.104164
0.104134
0.104108
0.104088
0.104072
0.104061
0.104054
0.104052
0.104054
0.10406
0.104069
0.104081
0.104097
0.104114
0.104133
0.104154
0.104176
0.104199
0.104222
0.104246
0.104269
0.104291
0.104313
0.104333
0.104352
0.104369
0.104384
0.104396
0.104406
0.104413
0.104417
0.104417
0.104415
0.104415
0.1
0.100204
0.100298
0.100296
0.100234
0.100155
0.100093
0.100068
0.100082
0.100127
0.100187
0.100249
0.100303
0.100348
0.100389
0.100435
0.100496
0.10058
0.10069
0.100825
0.100981
0.101147
0.101316
0.101478
0.101625
0.101752
0.101857
0.101939
0.101998
0.102039
0.102065
0.102081
0.102092
0.102104
0.102122
0.10215
0.102192
0.102252
0.102331
0.102432
0.102556
0.102702
0.102871
0.103062
0.103274
0.103506
0.103758
0.104026
0.104308
0.104602
0.104904
0.105211
0.105521
0.105829
0.106136
0.106439
0.106739
0.107037
0.107333
0.107631
0.107932
0.10824
0.108556
0.108884
0.109225
0.109582
0.109954
0.110344
0.110751
0.111176
0.111619
0.112078
0.112553
0.113042
0.113543
0.114053
0.11457
0.115092
0.115614
0.116135
0.116651
0.11716
0.11766
0.118151
0.118629
0.119096
0.119552
0.119996
0.120431
0.120857
0.121277
0.121692
0.122104
0.122516
0.12293
0.123346
0.123766
0.124192
0.124623
0.125061
0.125505
0.125955
0.12641
0.126868
0.127328
0.127789
0.128249
0.128705
0.129156
0.1296
0.130034
0.130457
0.130868
0.131264
0.131644
0.132009
0.132357
0.132687
0.133001
0.133299
0.133582
0.13385
0.134106
0.13435
0.134585
0.134811
0.135032
0.135247
0.135459
0.135668
0.135877
0.136087
0.136296
0.136508
0.13672
0.136935
0.13715
0.137366
0.137582
0.137798
0.138012
0.138222
0.138429
0.13863
0.138824
0.13901
0.139187
0.139353
0.139507
0.139649
0.139778
0.139893
0.139993
0.14008
0.140152
0.14021
0.140256
0.140289
0.14031
0.140321
0.140322
0.140315
0.140301
0.140282
0.140258
0.14023
0.140199
0.140167
0.140133
0.140099
0.140063
0.140027
0.139991
0.139953
0.139913
0.13987
0.139824
0.139774
0.139718
0.139655
0.139585
0.139505
0.139415
0.139315
0.139202
0.139076
0.138938
0.138786
0.13862
0.138441
0.138249
0.138044
0.137827
0.1376
0.137362
0.137117
0.136864
0.136605
0.136341
0.136075
0.135807
0.135538
0.13527
0.135003
0.134738
0.134475
0.134215
0.133958
0.133705
0.133453
0.133204
0.132957
0.132711
0.132465
0.132218
0.131971
0.131721
0.131469
0.131214
0.130954
0.130691
0.130424
0.130152
0.129876
0.129596
0.129312
0.129025
0.128736
0.128445
0.128153
0.127861
0.127569
0.12728
0.126993
0.126709
0.126429
0.126153
0.125882
0.125615
0.125353
0.125096
0.124842
0.124593
0.124346
0.124101
0.123858
0.123615
0.123372
0.123127
0.12288
0.122629
0.122375
0.122116
0.121852
0.121583
0.121309
0.121029
0.120745
0.120456
0.120164
0.119868
0.11957
0.119271
0.118971
0.118672
0.118374
0.118079
0.117786
0.117498
0.117213
0.116934
0.116659
0.11639
0.116126
0.115867
0.115613
0.115364
0.11512
0.114879
0.114643
0.11441
0.114181
0.113955
0.113733
0.113514
0.113299
0.113088
0.112881
0.112679
0.112481
0.11229
0.112103
0.111923
0.11175
0.111583
0.111422
0.111269
0.111122
0.110981
0.110847
0.110717
0.110593
0.110473
0.110356
0.110242
0.110131
0.110021
0.109912
0.109804
0.109696
0.109588
0.10948
0.109371
0.109262
0.109153
0.109044
0.108935
0.108826
0.108717
0.108609
0.108502
0.108395
0.108289
0.108184
0.108079
0.107975
0.10787
0.107766
0.107661
0.107555
0.107448
0.10734
0.107231
0.107121
0.107009
0.106895
0.106781
0.106666
0.10655
0.106434
0.106317
0.106202
0.106087
0.105973
0.105861
0.10575
0.105642
0.105537
0.105434
0.105333
0.105236
0.105142
0.105051
0.104964
0.10488
0.104799
0.104721
0.104648
0.104577
0.104511
0.104449
0.104391
0.104337
0.104287
0.104242
0.104202
0.104167
0.104136
0.104111
0.10409
0.104074
0.104063
0.104056
0.104054
0.104056
0.104061
0.10407
0.104082
0.104097
0.104115
0.104134
0.104154
0.104176
0.104199
0.104222
0.104245
0.104268
0.104291
0.104312
0.104332
0.104351
0.104368
0.104382
0.104395
0.104404
0.104411
0.104415
0.104416
0.104413
0.104413
0.1
0.100199
0.100293
0.100294
0.100235
0.100158
0.100096
0.100069
0.10008
0.100121
0.100179
0.100238
0.10029
0.100334
0.100375
0.10042
0.100481
0.100564
0.100674
0.100809
0.100963
0.101129
0.101296
0.101457
0.101604
0.101731
0.101835
0.101917
0.101978
0.102019
0.102046
0.102064
0.102077
0.10209
0.102109
0.102139
0.102182
0.102243
0.102324
0.102426
0.10255
0.102697
0.102866
0.103058
0.10327
0.103503
0.103754
0.104022
0.104304
0.104597
0.104899
0.105205
0.105513
0.105821
0.106127
0.106429
0.106729
0.107026
0.107322
0.107619
0.10792
0.108228
0.108545
0.108873
0.109214
0.109571
0.109944
0.110334
0.110742
0.111167
0.111611
0.112071
0.112546
0.113036
0.113537
0.114048
0.114565
0.115087
0.11561
0.116131
0.116647
0.117157
0.117658
0.118149
0.118629
0.119097
0.119554
0.12
0.120437
0.120865
0.121287
0.121705
0.12212
0.122534
0.12295
0.123369
0.123792
0.12422
0.124654
0.125094
0.12554
0.125991
0.126448
0.126907
0.127369
0.12783
0.128291
0.128747
0.129199
0.129643
0.130077
0.1305
0.13091
0.131306
0.131686
0.13205
0.132398
0.132728
0.133043
0.133341
0.133623
0.133892
0.134148
0.134393
0.134628
0.134854
0.135075
0.13529
0.135502
0.135713
0.135922
0.136131
0.136341
0.136551
0.136764
0.136978
0.137192
0.137408
0.137624
0.137838
0.138051
0.138261
0.138466
0.138666
0.13886
0.139045
0.139221
0.139386
0.139539
0.139681
0.139809
0.139923
0.140024
0.14011
0.140182
0.140241
0.140286
0.14032
0.140341
0.140353
0.140355
0.140348
0.140335
0.140316
0.140292
0.140265
0.140235
0.140203
0.140169
0.140135
0.1401
0.140064
0.140027
0.139989
0.139948
0.139906
0.139859
0.139808
0.139752
0.139689
0.139618
0.139538
0.139448
0.139346
0.139233
0.139108
0.138969
0.138817
0.138652
0.138473
0.138281
0.138076
0.13786
0.137633
0.137396
0.137151
0.136898
0.13664
0.136377
0.136111
0.135843
0.135574
0.135306
0.135039
0.134773
0.13451
0.13425
0.133993
0.133738
0.133486
0.133237
0.132989
0.132742
0.132495
0.132248
0.131999
0.131749
0.131496
0.13124
0.130981
0.130717
0.130449
0.130177
0.1299
0.12962
0.129335
0.129048
0.128758
0.128467
0.128174
0.127882
0.12759
0.1273
0.127012
0.126727
0.126446
0.126169
0.125897
0.12563
0.125367
0.125108
0.124854
0.124603
0.124355
0.12411
0.123865
0.123622
0.123377
0.123132
0.122884
0.122632
0.122377
0.122118
0.121854
0.121584
0.12131
0.12103
0.120745
0.120456
0.120164
0.119868
0.11957
0.11927
0.11897
0.118671
0.118373
0.118077
0.117784
0.117496
0.117211
0.116931
0.116656
0.116387
0.116123
0.115863
0.115609
0.11536
0.115115
0.114875
0.114638
0.114406
0.114177
0.113951
0.113729
0.11351
0.113296
0.113085
0.112878
0.112676
0.112479
0.112287
0.112101
0.111921
0.111748
0.111581
0.111421
0.111268
0.111121
0.11098
0.110846
0.110717
0.110593
0.110473
0.110356
0.110243
0.110132
0.110022
0.109914
0.109806
0.109698
0.10959
0.109482
0.109374
0.109265
0.109156
0.109047
0.108938
0.108829
0.108721
0.108613
0.108506
0.108399
0.108294
0.108188
0.108084
0.107979
0.107875
0.10777
0.107665
0.10756
0.107453
0.107345
0.107236
0.107126
0.107014
0.106901
0.106786
0.106671
0.106555
0.106439
0.106323
0.106207
0.106092
0.105978
0.105866
0.105756
0.105648
0.105542
0.105439
0.105339
0.105242
0.105148
0.105057
0.104969
0.104885
0.104804
0.104726
0.104653
0.104582
0.104516
0.104454
0.104395
0.104341
0.104292
0.104247
0.104206
0.104171
0.10414
0.104114
0.104093
0.104077
0.104066
0.104059
0.104056
0.104058
0.104063
0.104072
0.104084
0.104098
0.104115
0.104134
0.104155
0.104176
0.104199
0.104222
0.104245
0.104268
0.10429
0.104311
0.104331
0.104349
0.104366
0.104381
0.104393
0.104403
0.104409
0.104413
0.104414
0.104411
0.104411
0.1
0.100194
0.100287
0.100292
0.100237
0.100162
0.1001
0.10007
0.100077
0.100115
0.100168
0.100224
0.100274
0.100317
0.100356
0.100402
0.100462
0.100545
0.100654
0.100788
0.100941
0.101105
0.101271
0.101431
0.101576
0.101703
0.101808
0.10189
0.101951
0.101994
0.102023
0.102042
0.102057
0.102072
0.102093
0.102124
0.10217
0.102232
0.102314
0.102417
0.102543
0.102691
0.102861
0.103053
0.103266
0.103499
0.10375
0.104018
0.104299
0.104592
0.104892
0.105197
0.105504
0.105811
0.106115
0.106417
0.106715
0.107011
0.107307
0.107604
0.107905
0.108213
0.10853
0.108858
0.1092
0.109557
0.10993
0.110321
0.11073
0.111156
0.1116
0.112061
0.112537
0.113027
0.113529
0.114041
0.114559
0.115081
0.115604
0.116126
0.116643
0.117154
0.117656
0.118148
0.118629
0.119099
0.119557
0.120006
0.120444
0.120876
0.1213
0.121721
0.122139
0.122557
0.122976
0.123398
0.123824
0.124256
0.124693
0.125136
0.125585
0.126038
0.126497
0.126958
0.127421
0.127884
0.128345
0.128802
0.129254
0.129698
0.130132
0.130555
0.130965
0.13136
0.13174
0.132104
0.132451
0.132782
0.133096
0.133394
0.133677
0.133946
0.134202
0.134447
0.134682
0.13491
0.135131
0.135347
0.135559
0.135769
0.135978
0.136188
0.136397
0.136608
0.13682
0.137033
0.137247
0.137462
0.137676
0.13789
0.138102
0.13831
0.138514
0.138713
0.138905
0.139089
0.139264
0.139428
0.139581
0.139721
0.139848
0.139962
0.140062
0.140149
0.140221
0.14028
0.140326
0.140359
0.140382
0.140394
0.140396
0.140391
0.140378
0.14036
0.140337
0.14031
0.140281
0.140249
0.140216
0.140181
0.140146
0.14011
0.140073
0.140035
0.139994
0.139951
0.139904
0.139852
0.139795
0.139731
0.13966
0.139579
0.139489
0.139387
0.139274
0.139148
0.13901
0.138858
0.138692
0.138514
0.138322
0.138118
0.137903
0.137676
0.13744
0.137195
0.136943
0.136685
0.136423
0.136157
0.135889
0.135621
0.135352
0.135085
0.134819
0.134556
0.134295
0.134037
0.133782
0.133529
0.133278
0.133029
0.132781
0.132534
0.132286
0.132036
0.131785
0.131532
0.131275
0.131014
0.13075
0.130481
0.130208
0.129931
0.12965
0.129365
0.129078
0.128787
0.128495
0.128202
0.127909
0.127616
0.127325
0.127036
0.126751
0.126469
0.126191
0.125917
0.125648
0.125384
0.125124
0.124868
0.124616
0.124367
0.12412
0.123875
0.12363
0.123384
0.123137
0.122888
0.122636
0.122381
0.122121
0.121856
0.121586
0.121311
0.121031
0.120746
0.120456
0.120163
0.119867
0.119569
0.119269
0.118969
0.118669
0.118371
0.118075
0.117782
0.117493
0.117208
0.116928
0.116653
0.116383
0.116118
0.115859
0.115604
0.115355
0.11511
0.11487
0.114633
0.1144
0.114171
0.113946
0.113724
0.113506
0.113291
0.11308
0.112874
0.112672
0.112475
0.112284
0.112098
0.111919
0.111745
0.111579
0.111419
0.111266
0.11112
0.110979
0.110845
0.110716
0.110592
0.110473
0.110357
0.110243
0.110133
0.110023
0.109915
0.109808
0.1097
0.109593
0.109485
0.109377
0.109269
0.10916
0.109051
0.108943
0.108834
0.108726
0.108618
0.108511
0.108405
0.108299
0.108194
0.10809
0.107985
0.107881
0.107776
0.107671
0.107566
0.107459
0.107351
0.107242
0.107132
0.10702
0.106907
0.106793
0.106678
0.106562
0.106446
0.106329
0.106214
0.106099
0.105985
0.105873
0.105763
0.105655
0.105549
0.105446
0.105346
0.105249
0.105155
0.105064
0.104976
0.104892
0.104811
0.104733
0.104659
0.104589
0.104522
0.10446
0.104401
0.104347
0.104297
0.104252
0.104211
0.104176
0.104145
0.104119
0.104097
0.104081
0.104069
0.104062
0.104059
0.104061
0.104066
0.104074
0.104086
0.1041
0.104116
0.104135
0.104155
0.104177
0.104199
0.104221
0.104244
0.104267
0.104288
0.104309
0.104329
0.104347
0.104364
0.104378
0.10439
0.1044
0.104407
0.104411
0.104411
0.104409
0.104409
0.1
0.100187
0.10028
0.100289
0.100239
0.100167
0.100104
0.100071
0.100074
0.100106
0.100155
0.100207
0.100254
0.100296
0.100334
0.100379
0.100439
0.100521
0.100629
0.100762
0.100914
0.101076
0.101241
0.101399
0.101544
0.101669
0.101774
0.101857
0.101919
0.101964
0.101995
0.102016
0.102033
0.102051
0.102074
0.102107
0.102154
0.102219
0.102302
0.102407
0.102534
0.102683
0.102854
0.103047
0.103261
0.103494
0.103745
0.104013
0.104293
0.104585
0.104884
0.105187
0.105493
0.105798
0.106101
0.106401
0.106699
0.106994
0.107289
0.107586
0.107887
0.108195
0.108512
0.108841
0.109183
0.10954
0.109914
0.110305
0.110715
0.111142
0.111587
0.112048
0.112525
0.113016
0.113519
0.114032
0.114551
0.115074
0.115597
0.11612
0.116638
0.117149
0.117652
0.118146
0.118628
0.1191
0.119561
0.120012
0.120454
0.120888
0.121317
0.121741
0.122163
0.122585
0.123008
0.123435
0.123865
0.1243
0.124741
0.125187
0.125639
0.126096
0.126557
0.12702
0.127485
0.127949
0.128411
0.128869
0.129321
0.129765
0.130199
0.130622
0.131031
0.131426
0.131806
0.132169
0.132516
0.132846
0.13316
0.133459
0.133742
0.134011
0.134268
0.134513
0.134749
0.134977
0.135199
0.135415
0.135628
0.135839
0.136048
0.136257
0.136466
0.136677
0.136888
0.137101
0.137314
0.137528
0.137741
0.137953
0.138163
0.13837
0.138573
0.13877
0.138961
0.139143
0.139316
0.139479
0.139631
0.13977
0.139897
0.14001
0.14011
0.140196
0.140268
0.140327
0.140374
0.140408
0.140431
0.140444
0.140447
0.140443
0.140431
0.140414
0.140392
0.140365
0.140336
0.140305
0.140272
0.140238
0.140203
0.140167
0.14013
0.140091
0.140049
0.140006
0.139958
0.139906
0.139848
0.139783
0.139711
0.13963
0.139539
0.139437
0.139323
0.139197
0.139059
0.138907
0.138742
0.138564
0.138373
0.138169
0.137954
0.137728
0.137493
0.137249
0.136998
0.13674
0.136478
0.136213
0.135946
0.135677
0.135409
0.135141
0.134875
0.134611
0.13435
0.134091
0.133835
0.133581
0.133329
0.133079
0.13283
0.132581
0.132332
0.132081
0.131829
0.131575
0.131317
0.131055
0.13079
0.130521
0.130247
0.129969
0.129687
0.129402
0.129113
0.128822
0.128529
0.128236
0.127941
0.127648
0.127356
0.127066
0.126779
0.126496
0.126216
0.125941
0.125671
0.125405
0.125143
0.124886
0.124632
0.124381
0.124133
0.123886
0.123639
0.123393
0.123145
0.122894
0.122641
0.122385
0.122124
0.121858
0.121588
0.121312
0.121031
0.120746
0.120457
0.120163
0.119867
0.119568
0.119268
0.118968
0.118668
0.118369
0.118072
0.117779
0.11749
0.117204
0.116924
0.116648
0.116378
0.116113
0.115853
0.115599
0.115349
0.115104
0.114863
0.114626
0.114394
0.114165
0.113939
0.113718
0.1135
0.113285
0.113075
0.112869
0.112667
0.112471
0.11228
0.112094
0.111915
0.111743
0.111576
0.111417
0.111264
0.111118
0.110978
0.110844
0.110716
0.110592
0.110473
0.110357
0.110244
0.110134
0.110025
0.109917
0.10981
0.109703
0.109596
0.109489
0.109381
0.109273
0.109165
0.109057
0.108948
0.10884
0.108732
0.108625
0.108518
0.108412
0.108306
0.108201
0.108097
0.107992
0.107888
0.107784
0.107679
0.107573
0.107467
0.107359
0.10725
0.10714
0.107028
0.106915
0.106801
0.106685
0.10657
0.106454
0.106338
0.106222
0.106107
0.105994
0.105882
0.105771
0.105663
0.105558
0.105455
0.105354
0.105257
0.105163
0.105072
0.104984
0.1049
0.104819
0.104741
0.104667
0.104596
0.10453
0.104467
0.104408
0.104354
0.104304
0.104258
0.104218
0.104182
0.10415
0.104124
0.104102
0.104086
0.104074
0.104066
0.104063
0.104064
0.104068
0.104076
0.104088
0.104101
0.104118
0.104136
0.104156
0.104177
0.104198
0.104221
0.104243
0.104265
0.104287
0.104307
0.104327
0.104345
0.104361
0.104375
0.104387
0.104397
0.104404
0.104407
0.104408
0.104406
0.104406
0.1
0.100179
0.100272
0.100285
0.100241
0.100172
0.100108
0.100072
0.10007
0.100096
0.100139
0.100187
0.100232
0.100271
0.100309
0.100353
0.100412
0.100494
0.100601
0.100732
0.100882
0.101043
0.101206
0.101362
0.101505
0.10163
0.101735
0.101818
0.101882
0.101928
0.101962
0.101986
0.102005
0.102026
0.102052
0.102087
0.102137
0.102203
0.102288
0.102395
0.102523
0.102673
0.102846
0.10304
0.103254
0.103488
0.103739
0.104006
0.104286
0.104576
0.104874
0.105176
0.10548
0.105783
0.106084
0.106383
0.106679
0.106973
0.107268
0.107564
0.107865
0.108173
0.10849
0.108819
0.109162
0.10952
0.109895
0.110287
0.110697
0.111125
0.111571
0.112033
0.112512
0.113004
0.113508
0.114021
0.114541
0.115065
0.115589
0.116112
0.116631
0.117144
0.117648
0.118143
0.118628
0.119102
0.119566
0.12002
0.120465
0.120904
0.121336
0.121765
0.122192
0.122619
0.123047
0.123478
0.123913
0.124353
0.124798
0.125249
0.125704
0.126164
0.126628
0.127094
0.127561
0.128027
0.12849
0.128949
0.129401
0.129845
0.130279
0.130701
0.13111
0.131505
0.131884
0.132247
0.132593
0.132923
0.133237
0.133535
0.133819
0.134089
0.134346
0.134592
0.134829
0.135057
0.135279
0.135496
0.13571
0.13592
0.13613
0.136339
0.136548
0.136758
0.136969
0.13718
0.137393
0.137605
0.137817
0.138028
0.138236
0.138442
0.138643
0.138838
0.139027
0.139207
0.139379
0.13954
0.13969
0.139829
0.139954
0.140067
0.140166
0.140252
0.140324