# vtk DataFile Version 3.0
LBM Fluid Grid
ASCII
DATASET STRUCTURED_POINTS
DIMENSIONS 400 150 1
ORIGIN 0 0 0
SPACING 1 1 1
POINT_DATA 60000
SCALARS VelocityMagnitude double 1
LOOKUP_TABLE default
0.1
0.102507
0.104201
0.104797
0.105009
0.10572
0.107082
0.108783
0.110571
0.112376
0.114195
0.116026
0.117852
0.11964
0.121333
0.122848
0.124086
0.124931
0.125264
0.124978
0.124007
0.122354
0.12011
0.117453
0.114619
0.111854
0.109366
0.107291
0.105688
0.104547
0.103816
0.103422
0.103287
0.103342
0.103528
0.103799
0.10412
0.104468
0.104824
0.105177
0.105521
0.105851
0.106166
0.106464
0.106746
0.107012
0.107262
0.107498
0.10772
0.107929
0.108125
0.10831
0.108485
0.108651
0.108809
0.108961
0.109108
0.109251
0.109393
0.109533
0.109673
0.109813
0.109954
0.110095
0.110238
0.110382
0.110528
0.110675
0.110824
0.110974
0.111126
0.11128
0.111435
0.111592
0.11175
0.11191
0.11207
0.112231
0.112393
0.112554
0.112714
0.112873
0.113031
0.113186
0.113338
0.113487
0.113631
0.113771
0.113906
0.114035
0.114158
0.114273
0.114381
0.114482
0.114574
0.114657
0.114732
0.114797
0.114852
0.114897
0.114931
0.114955
0.114969
0.114971
0.114963
0.114943
0.114912
0.11487
0.114818
0.114754
0.11468
0.114594
0.114499
0.114394
0.114278
0.114154
0.11402
0.113877
0.113726
0.113567
0.113401
0.113228
0.113048
0.112862
0.112671
0.112475
0.112274
0.11207
0.111862
0.111651
0.111438
0.111223
0.111007
0.11079
0.110572
0.110354
0.110137
0.10992
0.109703
0.109489
0.109275
0.109064
0.108855
0.108648
0.108444
0.108244
0.108046
0.107853
0.107663
0.107477
0.107295
0.107117
0.106943
0.106774
0.106608
0.106447
0.106291
0.106139
0.105991
0.105848
0.105709
0.105575
0.105444
0.105317
0.105194
0.105074
0.104958
0.104846
0.104736
0.10463
0.104527
0.104427
0.10433
0.104237
0.104146
0.104059
0.103975
0.103894
0.103815
0.10374
0.103667
0.103595
0.103526
0.103458
0.10339
0.103322
0.103255
0.103186
0.103117
0.103046
0.102973
0.102899
0.102822
0.102742
0.102659
0.102572
0.10248
0.102382
0.102279
0.102168
0.10205
0.101925
0.101792
0.101652
0.101503
0.101345
0.101176
0.100996
0.100801
0.100589
0.100357
0.100104
0.0998268
0.0995263
0.0992025
0.0988564
0.0984893
0.0981022
0.0976945
0.0972644
0.0968075
0.0963179
0.0957883
0.0952117
0.0945814
0.0938928
0.0931419
0.092326
0.0914417
0.0904855
0.0894533
0.0883417
0.0871479
0.0858702
0.0845072
0.0830591
0.0815296
0.0799308
0.0782895
0.0766508
0.0750786
0.0736498
0.0724445
0.0715343
0.0709727
0.0707893
0.0709897
0.0715585
0.0724645
0.0736664
0.0751176
0.0767695
0.0785739
0.0804841
0.0824551
0.0844442
0.0864107
0.0883167
0.0901269
0.0918106
0.0933422
0.0947026
0.0958808
0.096874
0.0976876
0.0983345
0.0988331
0.0992053
0.0994743
0.0996622
0.0997893
0.0998723
0.0999249
0.0999571
0.0999762
0.0999872
0.0999934
0.0999968
0.0999986
0.0999995
0.1
0.1
0.1
0.1
0.1
0.1
0.1
0.1
0.1
0.1
0.1
0.1
0.1
0.1
0.1
0.1
0.1
0.0999999
0.0999998
0.0999998
0.0999997
0.0999997
0.0999997
0.0999997
0.0999997
0.0999997
0.0999997
0.0999998
0.1
0.1
0.1
0.1
0.1
0.1
0.1
0.1
0.1
0.0999999
0.0999999
0.0999998
0.0999998
0.0999998
0.0999998
0.0999998
0.0999999
0.0999999
0.0999999
0.0999999
0.1
0.1
0.1
0.1
0.1
0.1
0.1
0.1
0.1
0.1
0.1
0.1
0.1
0.1
0.1
0.1
0.1
0.1
0.1
0.1
0.1
0.1
0.1
0.1
0.1
0.1
0.1
0.1
0.1
0.1
0.1
0.1
0.1
0.1
0.1
0.1
0.1
0.1
0.1
0.1
0.1
0.1
0.1
0.1
0.1
0.1
0.1
0.1
0.1
0.1
0.1
0.1
0.1
0.1
0.1
0.1
0.1
0.1
0.1
0.1
0.1
0.1
0.1
0.1
0.1
0.1
0.1
0.1
0.1
0.1
0.1
0.1
0.1
0.102509
0.104202
0.104785
0.104995
0.105712
0.107079
0.108781
0.110567
0.11237
0.11419
0.116025
0.117862
0.119666
0.121384
0.122934
0.124214
0.125101
0.125468
0.125197
0.124211
0.122511
0.120194
0.117454
0.114544
0.111725
0.109211
0.107134
0.105545
0.104428
0.103724
0.103354
0.10324
0.103311
0.103509
0.103789
0.104116
0.104468
0.104827
0.105182
0.105527
0.105858
0.106173
0.106471
0.106753
0.107018
0.107269
0.107505
0.107726
0.107935
0.108131
0.108316
0.108491
0.108656
0.108813
0.108965
0.109111
0.109255
0.109396
0.109535
0.109675
0.109815
0.109956
0.110097
0.11024
0.110384
0.110529
0.110676
0.110825
0.110974
0.111126
0.111279
0.111434
0.111591
0.111749
0.111908
0.112068
0.112229
0.11239
0.112551
0.112711
0.11287
0.113028
0.113183
0.113335
0.113483
0.113628
0.113767
0.113902
0.11403
0.114153
0.114268
0.114376
0.114477
0.114568
0.114652
0.114726
0.11479
0.114845
0.11489
0.114925
0.114949
0.114962
0.114965
0.114956
0.114936
0.114906
0.114864
0.114811
0.114748
0.114673
0.114588
0.114493
0.114388
0.114273
0.114148
0.114015
0.113872
0.113721
0.113563
0.113397
0.113224
0.113044
0.112859
0.112668
0.112472
0.112271
0.112067
0.111859
0.111649
0.111436
0.111222
0.111006
0.110789
0.110571
0.110354
0.110136
0.10992
0.109704
0.109489
0.109276
0.109065
0.108856
0.108649
0.108446
0.108245
0.108048
0.107855
0.107665
0.10748
0.107298
0.10712
0.106946
0.106776
0.106611
0.10645
0.106293
0.106141
0.105994
0.10585
0.105712
0.105577
0.105446
0.105319
0.105196
0.105077
0.104961
0.104848
0.104739
0.104633
0.10453
0.10443
0.104333
0.104239
0.104148
0.104061
0.103977
0.103895
0.103817
0.103741
0.103668
0.103597
0.103528
0.10346
0.103392
0.103325
0.103258
0.103189
0.10312
0.103049
0.102976
0.102902
0.102825
0.102745
0.102663
0.102576
0.102484
0.102386
0.102283
0.102172
0.102054
0.101929
0.101796
0.101656
0.101507
0.101349
0.101181
0.101001
0.100806
0.100594
0.100362
0.100108
0.0998309
0.0995303
0.0992064
0.0988606
0.098494
0.0981077
0.0977012
0.0972724
0.0968169
0.0963285
0.0957999
0.0952235
0.0945931
0.0939038
0.0931522
0.0923355
0.0914506
0.090494
0.0894617
0.0883502
0.0871567
0.0858794
0.0845167
0.0830679
0.0815355
0.0799309
0.0782801
0.0766288
0.0750425
0.0736001
0.0723839
0.0714668
0.0709027
0.070721
0.0709264
0.0715022
0.0724165
0.0736271
0.0750869
0.0767471
0.0785594
0.0804769
0.0824549
0.0844504
0.0864228
0.0883339
0.0901486
0.0918357
0.0933695
0.094731
0.0959089
0.0969006
0.0977118
0.0983556
0.0988508
0.0992195
0.0994851
0.0996702
0.099795
0.0998762
0.0999275
0.0999587
0.0999772
0.0999878
0.0999938
0.099997
0.0999987
0.0999996
0.1
0.1
0.1
0.1
0.1
0.1
0.1
0.1
0.1
0.1
0.1
0.1
0.1
0.1
0.1
0.1
0.1
0.0999999
0.0999998
0.0999998
0.0999997
0.0999997
0.0999997
0.0999996
0.0999996
0.0999997
0.0999997
0.0999998
0.0999999
0.1
0.1
0.1
0.1
0.1
0.1
0.1
0.1
0.1
0.0999999
0.0999998
0.0999998
0.0999998
0.0999998
0.0999998
0.0999999
0.0999999
0.0999999
0.0999999
0.1
0.1
0.1
0.1
0.1
0.1
0.1
0.1
0.1
0.1
0.1
0.1
0.1
0.1
0.1
0.1
0.1
0.1
0.1
0.1
0.1
0.1
0.1
0.1
0.1
0.1
0.1
0.1
0.1
0.1
0.1
0.1
0.1
0.1
0.1
0.1
0.1
0.1
0.1
0.1
0.1
0.1
0.1
0.1
0.1
0.1
0.1
0.1
0.1
0.1
0.1
0.1
0.1
0.1
0.1
0.1
0.1
0.1
0.1
0.1
0.1
0.1
0.1
0.1
0.1
0.1
0.1
0.1
0.1
0.1
0.1
0.1
0.1
0.102507
0.104201
0.104797
0.105009
0.10572
0.107082
0.108783
0.110571
0.112375
0.114195
0.116025
0.117852
0.11964
0.121333
0.122848
0.124086
0.124932
0.125264
0.124978
0.124008
0.122354
0.12011
0.117453
0.114619
0.111854
0.109366
0.107291
0.105688
0.104547
0.103816
0.103422
0.103287
0.103342
0.103528
0.103799
0.10412
0.104468
0.104824
0.105177
0.105521
0.105851
0.106166
0.106464
0.106746
0.107012
0.107262
0.107498
0.10772
0.107929
0.108126
0.108311
0.108485
0.108651
0.108809
0.108961
0.109108
0.109251
0.109393
0.109533
0.109673
0.109813
0.109953
0.110095
0.110238
0.110382
0.110528
0.110675
0.110824
0.110974
0.111126
0.11128
0.111435
0.111592
0.11175
0.11191
0.11207
0.112231
0.112393
0.112554
0.112714
0.112873
0.113031
0.113186
0.113338
0.113487
0.113632
0.113772
0.113906
0.114035
0.114158
0.114273
0.114382
0.114482
0.114574
0.114657
0.114732
0.114797
0.114852
0.114897
0.114931
0.114955
0.114969
0.114971
0.114963
0.114943
0.114912
0.114871
0.114818
0.114754
0.11468
0.114595
0.114499
0.114394
0.114278
0.114154
0.11402
0.113877
0.113726
0.113567
0.113401
0.113228
0.113048
0.112862
0.112671
0.112475
0.112274
0.11207
0.111862
0.111651
0.111438
0.111223
0.111007
0.11079
0.110572
0.110354
0.110137
0.10992
0.109704
0.109489
0.109276
0.109064
0.108855
0.108649
0.108445
0.108245
0.108047
0.107854
0.107664
0.107478
0.107296
0.107118
0.106944
0.106774
0.106609
0.106448
0.106291
0.106139
0.105991
0.105847
0.105708
0.105573
0.105443
0.105316
0.105193
0.105073
0.104957
0.104845
0.104736
0.104629
0.104526
0.104427
0.10433
0.104236
0.104146
0.104058
0.103974
0.103893
0.103815
0.103739
0.103666
0.103595
0.103526
0.103458
0.10339
0.103323
0.103255
0.103187
0.103117
0.103046
0.102974
0.102899
0.102822
0.102742
0.102659
0.102572
0.10248
0.102382
0.102279
0.102168
0.10205
0.101925
0.101792
0.101651
0.101503
0.101345
0.101176
0.100996
0.100801
0.100589
0.100357
0.100104
0.0998269
0.0995265
0.0992026
0.0988565
0.0984894
0.0981022
0.0976945
0.0972643
0.0968073
0.0963177
0.0957881
0.0952115
0.0945813
0.0938927
0.0931419
0.092326
0.0914417
0.0904855
0.0894533
0.0883417
0.0871479
0.0858701
0.0845071
0.0830589
0.0815292
0.0799304
0.0782891
0.0766504
0.0750782
0.0736495
0.0724443
0.0715342
0.0709727
0.0707894
0.0709899
0.0715587
0.0724647
0.0736666
0.0751178
0.0767697
0.0785742
0.0804843
0.0824553
0.0844444
0.0864109
0.0883168
0.090127
0.0918106
0.0933421
0.0947024
0.0958805
0.0968737
0.0976873
0.0983343
0.0988329
0.0992052
0.0994741
0.0996621
0.0997892
0.0998723
0.0999249
0.0999572
0.0999763
0.0999873
0.0999935
0.0999969
0.0999987
0.0999996
0.1
0.1
0.1
0.1
0.1
0.1
0.1
0.1
0.1
0.1
0.1
0.1
0.1
0.1
0.1
0.1
0.1
0.0999999
0.0999998
0.0999998
0.0999998
0.0999997
0.0999997
0.0999996
0.0999996
0.0999996
0.0999997
0.0999998
0.0999999
0.1
0.1
0.1
0.1
0.1
0.1
0.1
0.1
0.1
0.0999999
0.0999998
0.0999998
0.0999998
0.0999998
0.0999998
0.0999999
0.0999999
0.0999999
0.0999999
0.1
0.1
0.1
0.1
0.1
0.1
0.1
0.1
0.1
0.1
0.1
0.1
0.1
0.1
0.1
0.1
0.1
0.1
0.1
0.1
0.1
0.1
0.1
0.1
0.1
0.1
0.1
0.1
0.1
0.1
0.1
0.1
0.1
0.1
0.1
0.1
0.1
0.1
0.1
0.1
0.1
0.1
0.1
0.1
0.1
0.1
0.1
0.1
0.1
0.1
0.1
0.1
0.1
0.1
0.1
0.1
0.1
0.1
0.1
0.1
0.1
0.1
0.1
0.1
0.1
0.1
0.1
0.1
0.1
0.1
0.1
0.1
0.1
0.1025
0.1042
0.104833
0.105052
0.105743
0.107092
0.108789
0.110581
0.112389
0.114205
0.116022
0.117819
0.119555
0.12117
0.122584
0.123703
0.124427
0.124665
0.124341
0.123417
0.121901
0.119865
0.117445
0.114829
0.112222
0.109816
0.107753
0.106109
0.1049
0.104093
0.103627
0.103431
0.103438
0.103587
0.103831
0.104134
0.104468
0.104816
0.105164
0.105504
0.105833
0.106147
0.106445
0.106726
0.106992
0.107243
0.107479
0.107702
0.107911
0.108108
0.108294
0.10847
0.108636
0.108796
0.108949
0.109097
0.109241
0.109384
0.109525
0.109665
0.109806
0.109947
0.110089
0.110233
0.110378
0.110524
0.110672
0.110821
0.110973
0.111126
0.11128
0.111436
0.111594
0.111753
0.111914
0.112075
0.112237
0.112399
0.112561
0.112722
0.112882
0.11304
0.113196
0.113349
0.113498
0.113643
0.113784
0.113919
0.114049
0.114172
0.114288
0.114397
0.114498
0.114591
0.114675
0.11475
0.114815
0.114871
0.114916
0.114951
0.114975
0.114989
0.114991
0.114983
0.114963
0.114932
0.11489
0.114837
0.114773
0.114698
0.114613
0.114517
0.114411
0.114295
0.11417
0.114035
0.113892
0.11374
0.113581
0.113414
0.11324
0.113059
0.112873
0.112681
0.112484
0.112282
0.112077
0.111868
0.111657
0.111443
0.111227
0.11101
0.110793
0.110574
0.110356
0.110137
0.10992
0.109703
0.109488
0.109274
0.109062
0.108852
0.108646
0.108442
0.108241
0.108043
0.10785
0.10766
0.107473
0.107291
0.107112
0.106938
0.106768
0.106602
0.106441
0.106284
0.106131
0.105983
0.105839
0.1057
0.105565
0.105434
0.105306
0.105183
0.105064
0.104948
0.104835
0.104726
0.10462
0.104518
0.104418
0.104322
0.104228
0.104138
0.104051
0.103967
0.103887
0.103809
0.103733
0.10366
0.103589
0.10352
0.103451
0.103383
0.103316
0.103248
0.103179
0.103109
0.103038
0.102965
0.10289
0.102813
0.102732
0.102649
0.102561
0.102469
0.102371
0.102267
0.102156
0.102038
0.101912
0.101779
0.101638
0.101489
0.101331
0.101162
0.100981
0.100786
0.100575
0.100343
0.100091
0.0998145
0.0995146
0.0991907
0.0988439
0.0984752
0.0980854
0.0976744
0.0972401
0.096779
0.0962857
0.0957536
0.0951759
0.0945463
0.0938594
0.093111
0.0922974
0.0914148
0.0904596
0.0894279
0.088316
0.0871213
0.0858423
0.0844788
0.0830331
0.0815121
0.0799309
0.0783177
0.076716
0.0751855
0.0737968
0.0726242
0.071735
0.071181
0.0709931
0.0711793
0.0717272
0.0726087
0.0737847
0.0752101
0.0768371
0.078618
0.080506
0.0824562
0.0844261
0.086375
0.0882652
0.0900622
0.0917355
0.0932601
0.0946173
0.0957961
0.0967935
0.0976144
0.0982706
0.0987797
0.0991624
0.0994412
0.0996378
0.099772
0.0998606
0.0999172
0.0999523
0.0999733
0.0999856
0.0999925
0.0999963
0.0999984
0.0999995
0.1
0.1
0.1
0.100001
0.100001
0.100001
0.100001
0.1
0.1
0.1
0.1
0.1
0.1
0.1
0.1
0.1
0.1
0.0999999
0.0999999
0.0999998
0.0999998
0.0999997
0.0999997
0.0999996
0.0999996
0.0999996
0.0999996
0.0999997
0.0999998
0.1
0.1
0.1
0.1
0.1
0.1
0.1
0.1
0.1
0.0999999
0.0999998
0.0999998
0.0999998
0.0999998
0.0999998
0.0999999
0.0999999
0.0999999
0.0999999
0.1
0.1
0.1
0.1
0.1
0.1
0.1
0.1
0.1
0.1
0.1
0.1
0.1
0.1
0.1
0.1
0.1
0.1
0.1
0.1
0.1
0.1
0.1
0.1
0.1
0.1
0.1
0.1
0.1
0.1
0.1
0.1
0.1
0.1
0.1
0.1
0.1
0.1
0.1
0.1
0.1
0.1
0.1
0.1
0.1
0.1
0.1
0.1
0.1
0.1
0.1
0.1
0.1
0.1
0.1
0.1
0.1
0.1
0.1
0.1
0.1
0.1
0.1
0.1
0.1
0.1
0.1
0.1
0.1
0.1
0.1
0.1
0.1
0.102491
0.1042
0.104895
0.105125
0.105783
0.107109
0.108799
0.110595
0.112405
0.114213
0.116002
0.117743
0.119389
0.120876
0.122127
0.12306
0.123604
0.123708
0.123342
0.122498
0.121193
0.119473
0.117416
0.115137
0.112785
0.110521
0.108489
0.106793
0.105483
0.104556
0.103973
0.103677
0.103602
0.103689
0.103888
0.104158
0.10447
0.104803
0.105142
0.105477
0.105802
0.106115
0.106412
0.106694
0.10696
0.107211
0.107448
0.107671
0.107881
0.108079
0.108266
0.108443
0.108612
0.108773
0.108928
0.109078
0.109225
0.109369
0.109511
0.109653
0.109795
0.109937
0.11008
0.110224
0.11037
0.110518
0.110667
0.110818
0.11097
0.111125
0.111281
0.111439
0.111598
0.111759
0.111921
0.112083
0.112247
0.11241
0.112573
0.112735
0.112897
0.113056
0.113213
0.113367
0.113517
0.113663
0.113805
0.113942
0.114072
0.114196
0.114314
0.114424
0.114526
0.114619
0.114704
0.11478
0.114846
0.114902
0.114948
0.114983
0.115008
0.115022
0.115024
0.115016
0.114996
0.114965
0.114923
0.114869
0.114805
0.114729
0.114643
0.114547
0.11444
0.114323
0.114196
0.114061
0.113917
0.113764
0.113603
0.113435
0.11326
0.113078
0.11289
0.112697
0.112498
0.112296
0.112089
0.111879
0.111667
0.111451
0.111235
0.111016
0.110797
0.110578
0.110358
0.110138
0.10992
0.109702
0.109485
0.109271
0.109058
0.108848
0.10864
0.108435
0.108234
0.108036
0.107842
0.107651
0.107464
0.107281
0.107103
0.106928
0.106757
0.106591
0.106429
0.106272
0.106119
0.10597
0.105826
0.105686
0.10555
0.105419
0.105291
0.105168
0.105048
0.104932
0.10482
0.104711
0.104606
0.104503
0.104404
0.104308
0.104216
0.104126
0.10404
0.103956
0.103876
0.103798
0.103723
0.10365
0.103579
0.103509
0.10344
0.103372
0.103304
0.103235
0.103166
0.103095
0.103024
0.10295
0.102875
0.102797
0.102716
0.102631
0.102543
0.10245
0.102351
0.102247
0.102135
0.102017
0.101891
0.101758
0.101616
0.101467
0.101308
0.101139
0.100958
0.100763
0.100551
0.10032
0.100068
0.0997929
0.0994934
0.0991696
0.0988217
0.0984507
0.0980572
0.0976409
0.0972006
0.096733
0.0962339
0.0956976
0.0951181
0.094489
0.0938046
0.0930596
0.0922492
0.0913693
0.0904157
0.0893845
0.0882724
0.0870768
0.0857966
0.0844337
0.0829937
0.0814882
0.0799368
0.0783694
0.0768273
0.0753634
0.0740391
0.0729191
0.0720641
0.0715233
0.0713286
0.071492
0.0720061
0.0728475
0.0739808
0.0753633
0.076949
0.0786906
0.0805417
0.0824575
0.0843953
0.0863151
0.0881796
0.0899548
0.0916112
0.0931245
0.0944767
0.0956568
0.0966612
0.0974939
0.0981654
0.0986915
0.0990915
0.0993864
0.0995971
0.099743
0.0998407
0.0999041
0.099944
0.0999683
0.0999826
0.0999908
0.0999954
0.0999979
0.0999992
0.0999999
0.1
0.1
0.100001
0.100001
0.100001
0.100001
0.100001
0.1
0.1
0.1
0.1
0.1
0.1
0.1
0.1
0.0999999
0.0999999
0.0999999
0.0999998
0.0999998
0.0999997
0.0999997
0.0999996
0.0999996
0.0999996
0.0999996
0.0999997
0.0999998
0.1
0.1
0.1
0.1
0.1
0.1
0.1
0.1
0.1
0.0999999
0.0999998
0.0999998
0.0999998
0.0999998
0.0999998
0.0999999
0.0999999
0.0999999
0.0999999
0.1
0.1
0.1
0.1
0.1
0.1
0.1
0.1
0.1
0.1
0.1
0.1
0.1
0.1
0.1
0.1
0.1
0.1
0.1
0.1
0.1
0.1
0.1
0.1
0.1
0.1
0.1
0.1
0.1
0.1
0.1
0.1
0.1
0.1
0.1
0.1
0.1
0.1
0.1
0.1
0.1
0.1
0.1
0.1
0.1
0.1
0.1
0.1
0.1
0.1
0.1
0.1
0.1
0.1
0.1
0.1
0.1
0.1
0.1
0.1
0.1
0.1
0.1
0.1
0.1
0.1
0.1
0.1
0.1
0.1
0.1
0.1
0.1
0.102478
0.104206
0.104986
0.105231
0.105843
0.107137
0.108813
0.110609
0.112415
0.114201
0.115941
0.117596
0.119111
0.120421
0.121456
0.122158
0.122494
0.122456
0.122061
0.121334
0.120297
0.118962
0.117347
0.115491
0.113474
0.111414
0.109451
0.10771
0.106281
0.105202
0.104465
0.104031
0.103842
0.103841
0.103974
0.104198
0.104478
0.104789
0.105114
0.10544
0.105761
0.10607
0.106367
0.106648
0.106915
0.107166
0.107403
0.107627
0.107838
0.108038
0.108226
0.108406
0.108577
0.108741
0.108899
0.109052
0.109201
0.109348
0.109492
0.109636
0.109779
0.109923
0.110067
0.110213
0.11036
0.110509
0.11066
0.110812
0.110967
0.111123
0.111282
0.111442
0.111603
0.111766
0.11193
0.112095
0.11226
0.112425
0.11259
0.112754
0.112917
0.113078
0.113236
0.113392
0.113544
0.113691
0.113835
0.113973
0.114105
0.11423
0.114349
0.114461
0.114564
0.114659
0.114745
0.114822
0.114889
0.114946
0.114993
0.115029
0.115054
0.115068
0.115071
0.115062
0.115042
0.115011
0.114968
0.114914
0.114849
0.114773
0.114686
0.114588
0.11448
0.114362
0.114234
0.114097
0.113951
0.113797
0.113634
0.113464
0.113287
0.113104
0.112914
0.112719
0.112519
0.112315
0.112106
0.111895
0.11168
0.111463
0.111244
0.111024
0.110803
0.110582
0.110361
0.110139
0.109919
0.1097
0.109482
0.109266
0.109052
0.108841
0.108632
0.108426
0.108224
0.108025
0.10783
0.107639
0.107451
0.107268
0.107088
0.106913
0.106742
0.106575
0.106413
0.106255
0.106101
0.105952
0.105807
0.105666
0.10553
0.105398
0.105271
0.105147
0.105027
0.104912
0.104799
0.104691
0.104586
0.104484
0.104385
0.10429
0.104198
0.104109
0.104024
0.103941
0.103861
0.103784
0.103709
0.103635
0.103564
0.103494
0.103424
0.103355
0.103286
0.103217
0.103147
0.103076
0.103003
0.102929
0.102853
0.102774
0.102693
0.102607
0.102518
0.102423
0.102324
0.102218
0.102107
0.101988
0.101862
0.101728
0.101587
0.101437
0.101277
0.101108
0.100926
0.10073
0.100518
0.100287
0.100035
0.0997607
0.0994617
0.0991377
0.0987887
0.098415
0.098017
0.0975945
0.0971464
0.0966707
0.0961642
0.0956224
0.09504
0.094411
0.093729
0.0929876
0.0921811
0.0913042
0.0903525
0.0893222
0.0882101
0.087014
0.085734
0.0843745
0.0829455
0.0814641
0.0799549
0.0784496
0.0769868
0.0756108
0.0743716
0.073322
0.0725138
0.0719921
0.0717898
0.0719236
0.0723924
0.0731791
0.0742535
0.0755767
0.0771047
0.0787914
0.0805909
0.0824585
0.0843519
0.0862313
0.0880601
0.0898055
0.0914389
0.092937
0.0942825
0.0954643
0.0964784
0.0973273
0.0980196
0.0985689
0.0989924
0.0993095
0.0995398
0.0997018
0.0998123
0.0998853
0.099932
0.0999609
0.0999782
0.0999883
0.099994
0.0999971
0.0999988
0.0999997
0.1
0.1
0.100001
0.100001
0.100001
0.100001
0.100001
0.100001
0.1
0.1
0.1
0.1
0.1
0.1
0.1
0.0999999
0.0999999
0.0999999
0.0999999
0.0999998
0.0999998
0.0999997
0.0999996
0.0999996
0.0999996
0.0999996
0.0999997
0.0999998
0.0999999
0.1
0.1
0.1
0.1
0.1
0.1
0.1
0.1
0.0999999
0.0999998
0.0999998
0.0999998
0.0999998
0.0999998
0.0999999
0.0999999
0.0999999
0.0999999
0.1
0.1
0.1
0.1
0.1
0.1
0.1
0.1
0.1
0.1
0.1
0.1
0.1
0.1
0.1
0.1
0.1
0.1
0.1
0.1
0.1
0.1
0.1
0.1
0.1
0.1
0.1
0.1
0.1
0.1
0.1
0.1
0.1
0.1
0.1
0.1
0.1
0.1
0.1
0.1
0.1
0.1
0.1
0.1
0.1
0.1
0.1
0.1
0.1
0.1
0.1
0.1
0.1
0.1
0.1
0.1
0.1
0.1
0.1
0.1
0.1
0.1
0.1
0.1
0.1
0.1
0.1
0.1
0.1
0.1
0.1
0.1
0.1
0.102465
0.104223
0.105109
0.10537
0.105927
0.107175
0.108829
0.110615
0.112404
0.114148
0.11581
0.117342
0.118683
0.119772
0.120557
0.121011
0.121141
0.120985
0.120597
0.120024
0.119284
0.118362
0.117223
0.115836
0.114213
0.11242
0.110575
0.108818
0.107275
0.106027
0.105107
0.104501
0.104167
0.10405
0.104097
0.104258
0.104494
0.104775
0.105081
0.105395
0.105709
0.106014
0.106309
0.10659
0.106856
0.107109
0.107347
0.107571
0.107784
0.107985
0.108176
0.108358
0.108532
0.1087
0.108861
0.109018
0.10917
0.10932
0.109467
0.109613
0.109759
0.109904
0.11005
0.110198
0.110347
0.110498
0.11065
0.110805
0.110963
0.111122
0.111283
0.111446
0.11161
0.111775
0.111942
0.112109
0.112277
0.112445
0.112612
0.112778
0.112943
0.113106
0.113266
0.113424
0.113578
0.113728
0.113873
0.114013
0.114147
0.114275
0.114395
0.114509
0.114614
0.11471
0.114798
0.114876
0.114945
0.115003
0.11505
0.115087
0.115113
0.115127
0.11513
0.115122
0.115102
0.11507
0.115027
0.114972
0.114906
0.114829
0.11474
0.114641
0.114532
0.114412
0.114283
0.114144
0.113996
0.113839
0.113675
0.113503
0.113323
0.113138
0.112946
0.112748
0.112546
0.112339
0.112128
0.111914
0.111697
0.111478
0.111257
0.111035
0.110812
0.110588
0.110364
0.110141
0.109919
0.109697
0.109478
0.10926
0.109044
0.108831
0.108621
0.108414
0.108211
0.108011
0.107814
0.107622
0.107434
0.107249
0.107069
0.106893
0.106721
0.106554
0.106391
0.106232
0.106078
0.105928
0.105783
0.105642
0.105505
0.105373
0.105245
0.105121
0.105001
0.104885
0.104773
0.104665
0.10456
0.104459
0.104361
0.104267
0.104176
0.104088
0.104003
0.103921
0.103841
0.103764
0.103689
0.103616
0.103544
0.103473
0.103403
0.103333
0.103263
0.103193
0.103122
0.103051
0.102978
0.102903
0.102826
0.102746
0.102663
0.102576
0.102485
0.102389
0.102289
0.102182
0.10207
0.101951
0.101824
0.101691
0.101549
0.101399
0.101239
0.101069
0.100886
0.100688
0.100475
0.100244
0.0999914
0.0997166
0.0994177
0.0990935
0.0987433
0.098367
0.0979643
0.0975351
0.0970787
0.0965939
0.0960788
0.0955303
0.0949439
0.094314
0.0936336
0.0928953
0.0920923
0.0912184
0.0902687
0.0892396
0.0881281
0.086933
0.0856563
0.0843053
0.082895
0.0814479
0.0799935
0.078565
0.0771973
0.075926
0.0747884
0.073824
0.0730739
0.0725778
0.0723687
0.072468
0.0728818
0.0736007
0.0746012
0.075849
0.0773032
0.0789196
0.0806528
0.0824588
0.0842955
0.0861236
0.0879075
0.0896155
0.0912203
0.0926998
0.0940371
0.0952214
0.0962475
0.0971165
0.0978345
0.0984127
0.0988657
0.0992106
0.0994655
0.0996481
0.099775
0.0998603
0.0999158
0.0999508
0.0999721
0.0999847
0.099992
0.099996
0.0999982
0.0999994
0.1
0.1
0.100001
0.100001
0.100001
0.100001
0.100001
0.100001
0.1
0.1
0.1
0.1
0.1
0.1
0.0999999
0.0999999
0.0999999
0.0999999
0.0999999
0.0999998
0.0999998
0.0999997
0.0999997
0.0999996
0.0999996
0.0999996
0.0999997
0.0999998
0.0999999
0.1
0.1
0.1
0.1
0.1
0.1
0.1
0.1
0.0999999
0.0999998
0.0999998
0.0999998
0.0999998
0.0999998
0.0999999
0.0999999
0.0999999
0.0999999
0.1
0.1
0.1
0.1
0.1
0.1
0.1
0.1
0.1
0.1
0.1
0.1
0.1
0.1
0.1
0.1
0.1
0.1
0.1
0.1
0.1
0.1
0.1
0.1
0.1
0.1
0.1
0.1
0.1
0.1
0.1
0.1
0.1
0.1
0.1
0.1
0.1
0.1
0.1
0.1
0.1
0.1
0.1
0.1
0.1
0.1
0.1
0.1
0.1
0.1
0.1
0.1
0.1
0.1
0.1
0.1
0.1
0.1
0.1
0.1
0.1
0.1
0.1
0.1
0.1
0.1
0.1
0.1
0.1
0.1
0.1
0.1
0.1
0.10245
0.104256
0.105266
0.105544
0.106035
0.107224
0.108841
0.1106
0.112349
0.114022
0.11557
0.116938
0.118067
0.118906
0.119431
0.119651
0.119611
0.119386
0.119051
0.118659
0.118224
0.117707
0.117034
0.116124
0.114927
0.113454
0.111788
0.110065
0.108434
0.107021
0.105901
0.105097
0.104588
0.104328
0.104265
0.104345
0.104524
0.104766
0.105046
0.105344
0.105647
0.105948
0.106239
0.106519
0.106786
0.107038
0.107277
0.107504
0.107718
0.107921
0.108115
0.1083
0.108478
0.108649
0.108814
0.108975
0.109132
0.109285
0.109436
0.109585
0.109733
0.109881
0.11003
0.110179
0.110331
0.110484
0.110639
0.110797
0.110957
0.111119
0.111284
0.11145
0.111617
0.111786
0.111956
0.112126
0.112297
0.112468
0.112638
0.112807
0.112974
0.11314
0.113303
0.113463
0.11362
0.113772
0.11392
0.114063
0.114199
0.114329
0.114452
0.114568
0.114675
0.114774
0.114863
0.114943
0.115013
0.115072
0.115121
0.115159
0.115185
0.1152
0.115203
0.115195
0.115175
0.115143
0.115099
0.115043
0.114976
0.114897
0.114807
0.114707
0.114595
0.114474
0.114342
0.114201
0.11405
0.113892
0.113724
0.11355
0.113368
0.113179
0.112984
0.112784
0.112579
0.112369
0.112155
0.111938
0.111718
0.111496
0.111272
0.111047
0.110821
0.110595
0.110368
0.110142
0.109917
0.109694
0.109472
0.109252
0.109034
0.108819
0.108608
0.108399
0.108194
0.107993
0.107795
0.107601
0.107412
0.107227
0.107045
0.106868
0.106696
0.106528
0.106364
0.106205
0.10605
0.105899
0.105753
0.105611
0.105474
0.105342
0.105213
0.105089
0.10497
0.104854
0.104742
0.104634
0.10453
0.10443
0.104333
0.104239
0.104149
0.104061
0.103977
0.103895
0.103816
0.103739
0.103664
0.10359
0.103518
0.103446
0.103375
0.103305
0.103234
0.103164
0.103092
0.10302
0.102946
0.10287
0.102792
0.102711
0.102626
0.102538
0.102445
0.102348
0.102246
0.102138
0.102025
0.101906
0.10178
0.101646
0.101505
0.101355
0.101194
0.101022
0.100837
0.100638
0.100423
0.100189
0.0999352
0.0996595
0.0993601
0.0990354
0.0986843
0.0983056
0.0978987
0.097463
0.0969984
0.0965044
0.0959803
0.0954241
0.0948325
0.0942
0.0935194
0.0927828
0.0919822
0.0911108
0.0901631
0.0891356
0.0880261
0.0868348
0.0855662
0.0842314
0.0828498
0.081449
0.080062
0.0787227
0.077462
0.0763071
0.0752828
0.0744147
0.0737325
0.0732687
0.0730551
0.0731173
0.0734688
0.0741088
0.0750214
0.0761786
0.0775435
0.0790742
0.0807268
0.0824578
0.0842258
0.0859923
0.0877226
0.0893864
0.0909578
0.0924156
0.0937436
0.0949309
0.0959713
0.0968637
0.0976119
0.0982239
0.0987116
0.0990894
0.0993737
0.0995812
0.099728
0.0998285
0.099895
0.0999377
0.0999642
0.0999801
0.0999893
0.0999945
0.0999974
0.0999989
0.0999998
0.1
0.100001
0.100001
0.100001
0.100001
0.100001
0.100001
0.100001
0.1
0.1
0.1
0.1
0.1
0.0999999
0.0999999
0.0999999
0.0999999
0.0999999
0.0999998
0.0999998
0.0999997
0.0999997
0.0999996
0.0999996
0.0999996
0.0999997
0.0999998
0.0999999
0.1
0.1
0.1
0.1
0.1
0.1
0.1
0.1
0.0999999
0.0999998
0.0999998
0.0999998
0.0999998
0.0999999
0.0999999
0.0999999
0.0999999
0.1
0.1
0.1
0.1
0.1
0.1
0.1
0.1
0.1
0.1
0.1
0.1
0.1
0.1
0.1
0.1
0.1
0.1
0.1
0.1
0.1
0.1
0.1
0.1
0.1
0.1
0.1
0.1
0.1
0.1
0.1
0.1
0.1
0.1
0.1
0.1
0.1
0.1
0.1
0.1
0.1
0.1
0.1
0.1
0.1
0.1
0.1
0.1
0.1
0.1
0.1
0.1
0.1
0.1
0.1
0.1
0.1
0.1
0.1
0.1
0.1
0.1
0.1
0.1
0.1
0.1
0.1
0.1
0.1
0.1
0.1
0.1
0.1
0.1
0.102433
0.104307
0.105457
0.105749
0.106165
0.107277
0.108836
0.110543
0.112222
0.113787
0.11518
0.116345
0.117233
0.117815
0.118097
0.118126
0.117978
0.117745
0.11751
0.11732
0.117177
0.117028
0.11678
0.11632
0.115554
0.114439
0.113013
0.111387
0.109718
0.108164
0.106845
0.105826
0.105116
0.104686
0.104488
0.104467
0.104574
0.104766
0.105012
0.105289
0.105579
0.105871
0.106158
0.106436
0.106702
0.106956
0.107196
0.107424
0.10764
0.107846
0.108043
0.108232
0.108413
0.108589
0.108758
0.108924
0.109085
0.109242
0.109397
0.10955
0.109702
0.109853
0.110005
0.110158
0.110312
0.110468
0.110627
0.110788
0.110951
0.111116
0.111284
0.111454
0.111625
0.111798
0.111971
0.112146
0.11232
0.112494
0.112668
0.11284
0.113011
0.11318
0.113347
0.11351
0.11367
0.113825
0.113976
0.114122
0.114261
0.114394
0.11452
0.114638
0.114748
0.114849
0.11494
0.115022
0.115094
0.115155
0.115205
0.115244
0.115271
0.115287
0.11529
0.115282
0.115261
0.115228
0.115184
0.115127
0.115059
0.114978
0.114887
0.114784
0.114671
0.114547
0.114412
0.114269
0.114115
0.113953
0.113783
0.113605
0.11342
0.113228
0.11303
0.112826
0.112617
0.112404
0.112187
0.111966
0.111743
0.111517
0.11129
0.111061
0.110832
0.110602
0.110373
0.110144
0.109916
0.10969
0.109465
0.109242
0.109022
0.108805
0.108591
0.108381
0.108174
0.107971
0.107772
0.107576
0.107386
0.107199
0.107017
0.106839
0.106665
0.106496
0.106332
0.106171
0.106016
0.105864
0.105718
0.105576
0.105438
0.105305
0.105177
0.105053
0.104933
0.104818
0.104706
0.104599
0.104495
0.104395
0.104299
0.104206
0.104116
0.10403
0.103946
0.103865
0.103786
0.103708
0.103633
0.103559
0.103486
0.103414
0.103342
0.103271
0.1032
0.103128
0.103056
0.102983
0.102909
0.102832
0.102752
0.102669
0.102583
0.102493
0.102398
0.102299
0.102195
0.102087
0.101973
0.101854
0.101728
0.101595
0.101454
0.101304
0.101142
0.100968
0.100781
0.100579
0.100359
0.100122
0.0998658
0.0995882
0.0992877
0.0989625
0.0986106
0.0982301
0.0978197
0.0973785
0.0969065
0.0964039
0.0958707
0.0953063
0.0947079
0.0940708
0.0933877
0.0926505
0.0918507
0.0909807
0.0900349
0.0890098
0.0879045
0.0867213
0.0854677
0.0841588
0.0828181
0.0814767
0.0801694
0.0789295
0.0777841
0.0767524
0.0758478
0.0750834
0.0744765
0.0740515
0.0738373
0.0738621
0.0741465
0.0746984
0.0755109
0.0765633
0.0778238
0.0792539
0.0808117
0.0824549
0.0841427
0.0858379
0.0875068
0.0891203
0.090654
0.0920877
0.0934057
0.0945966
0.095653
0.0965718
0.0973538
0.0980038
0.0985306
0.098946
0.0992642
0.0995005
0.0996707
0.0997892
0.0998691
0.0999212
0.099954
0.099974
0.0999858
0.0999925
0.0999963
0.0999984
0.0999995
0.1
0.100001
0.100001
0.100001
0.100001
0.100001
0.100001
0.100001
0.1
0.1
0.1
0.1
0.0999999
0.0999999
0.0999999
0.0999999
0.0999999
0.0999999
0.0999998
0.0999998
0.0999997
0.0999997
0.0999996
0.0999996
0.0999996
0.0999997
0.0999998
0.0999999
0.1
0.1
0.1
0.1
0.1
0.1
0.1
0.0999999
0.0999999
0.0999998
0.0999998
0.0999998
0.0999998
0.0999999
0.0999999
0.0999999
0.0999999
0.1
0.1
0.1
0.1
0.1
0.1
0.1
0.1
0.1
0.1
0.1
0.1
0.1
0.1
0.1
0.1
0.1
0.1
0.1
0.1
0.1
0.1
0.1
0.1
0.1
0.1
0.1
0.1
0.1
0.1
0.1
0.1
0.1
0.1
0.1
0.1
0.1
0.1
0.1
0.1
0.1
0.1
0.1
0.1
0.1
0.1
0.1
0.1
0.1
0.1
0.1
0.1
0.1
0.1
0.1
0.1
0.1
0.1
0.1
0.1
0.1
0.1
0.1
0.1
0.1
0.1
0.1
0.1
0.1
0.1
0.1
0.1
0.1
0.1
0.102414
0.104379
0.105677
0.105977
0.106309
0.107321
0.108795
0.110417
0.111987
0.113401
0.114599
0.115532
0.11617
0.116512
0.116599
0.116503
0.116319
0.116143
0.116046
0.116064
0.116185
0.116353
0.116469
0.11641
0.116053
0.115313
0.114178
0.112718
0.111076
0.109426
0.107927
0.106689
0.10576
0.105136
0.104778
0.104635
0.104651
0.104781
0.104984
0.105232
0.105504
0.105786
0.106067
0.106342
0.106607
0.106861
0.107102
0.107332
0.107551
0.10776
0.10796
0.108152
0.108338
0.108518
0.108693
0.108863
0.109029
0.109191
0.109351
0.109508
0.109664
0.10982
0.109976
0.110132
0.11029
0.11045
0.110612
0.110776
0.110943
0.111113
0.111284
0.111458
0.111633
0.11181
0.111988
0.112167
0.112346
0.112524
0.112702
0.112879
0.113054
0.113227
0.113397
0.113564
0.113728
0.113887
0.114042
0.114191
0.114333
0.11447
0.114599
0.11472
0.114833
0.114936
0.11503
0.115115
0.115188
0.115251
0.115303
0.115342
0.115371
0.115387
0.115391
0.115382
0.115361
0.115328
0.115282
0.115225
0.115155
0.115073
0.114979
0.114874
0.114758