# vtk DataFile Version 3.0
LBM Fluid Grid
ASCII
DATASET STRUCTURED_POINTS
DIMENSIONS 400 150 1
ORIGIN 0 0 0
SPACING 1 1 1
POINT_DATA 60000
SCALARS VelocityMagnitude double 1
LOOKUP_TABLE default
0.1
0.100137
0.100279
0.100413
0.100526
0.100611
0.100671
0.10071
0.100735
0.100755
0.100773
0.100793
0.100811
0.100827
0.10084
0.100849
0.100858
0.10087
0.10089
0.100923
0.100971
0.101038
0.101123
0.101225
0.101344
0.101476
0.10162
0.101773
0.101933
0.102096
0.102261
0.102425
0.102585
0.102741
0.10289
0.103035
0.103174
0.10331
0.103445
0.103581
0.103719
0.103863
0.104014
0.104174
0.104344
0.104526
0.104722
0.104931
0.105156
0.105396
0.105651
0.105921
0.106205
0.1065
0.106806
0.10712
0.10744
0.107765
0.108092
0.108419
0.108747
0.109075
0.109401
0.109727
0.110053
0.11038
0.110709
0.111042
0.111379
0.111723
0.112074
0.112434
0.112804
0.113186
0.113579
0.113984
0.114402
0.114833
0.115275
0.115728
0.116192
0.116664
0.117144
0.11763
0.118119
0.118611
0.119104
0.119596
0.120086
0.120572
0.121053
0.121528
0.121998
0.122461
0.122918
0.123369
0.123814
0.124253
0.124687
0.125117
0.125544
0.125967
0.126388
0.126807
0.127225
0.127642
0.128057
0.128472
0.128885
0.129296
0.129706
0.130112
0.130515
0.130913
0.131305
0.13169
0.132068
0.132436
0.132794
0.133141
0.133476
0.133799
0.134107
0.134402
0.134683
0.134949
0.135201
0.13544
0.135665
0.135877
0.136078
0.136268
0.136448
0.136619
0.136782
0.136939
0.13709
0.137236
0.137379
0.13752
0.137658
0.137796
0.137932
0.138068
0.138203
0.138338
0.138473
0.138606
0.138738
0.138869
0.138997
0.139122
0.139243
0.139359
0.13947
0.139575
0.139673
0.139763
0.139846
0.13992
0.139986
0.140043
0.140092
0.140131
0.140162
0.140186
0.140201
0.140209
0.140211
0.140207
0.140198
0.140185
0.140168
0.140147
0.140125
0.140101
0.140075
0.140049
0.140022
0.139994
0.139967
0.139939
0.13991
0.139881
0.139851
0.139819
0.139786
0.13975
0.139712
0.139669
0.139623
0.139572
0.139517
0.139455
0.139388
0.139314
0.139235
0.139149
0.139057
0.138958
0.138854
0.138744
0.138629
0.13851
0.138387
0.13826
0.138131
0.138001
0.137869
0.137737
0.137605
0.137474
0.137345
0.137217
0.137092
0.136969
0.136849
0.136732
0.136618
0.136507
0.136398
0.136291
0.136187
0.136084
0.135982
0.13588
0.135779
0.135677
0.135575
0.135472
0.135367
0.135261
0.135152
0.135042
0.134929
0.134814
0.134698
0.134579
0.134459
0.134337
0.134215
0.134092
0.133969
0.133845
0.133723
0.133601
0.13348
0.133361
0.133243
0.133127
0.133013
0.1329
0.132789
0.132679
0.13257
0.132462
0.132355
0.132247
0.132139
0.13203
0.13192
0.131808
0.131693
0.131576
0.131456
0.131333
0.131207
0.131077
0.130944
0.130807
0.130668
0.130525
0.130379
0.130231
0.130081
0.129929
0.129776
0.129622
0.129468
0.129314
0.129161
0.129009
0.128858
0.128708
0.12856
0.128414
0.12827
0.128127
0.127986
0.127846
0.127707
0.127569
0.127432
0.127295
0.127158
0.127021
0.126883
0.126744
0.126604
0.126462
0.126319
0.126175
0.126028
0.125881
0.125732
0.125581
0.12543
0.125278
0.125126
0.124974
0.124822
0.124671
0.124521
0.124372
0.124224
0.124079
0.123935
0.123794
0.123654
0.123516
0.123381
0.123247
0.123114
0.122983
0.122852
0.122723
0.122593
0.122464
0.122334
0.122203
0.122072
0.12194
0.121806
0.121671
0.121534
0.121396
0.121257
0.121117
0.120975
0.120833
0.12069
0.120547
0.120404
0.120262
0.12012
0.119979
0.119839
0.119701
0.119564
0.119429
0.119297
0.119166
0.119038
0.118912
0.118788
0.118666
0.118547
0.118429
0.118314
0.118201
0.11809
0.117982
0.117875
0.117771
0.117669
0.11757
0.117473
0.11738
0.117289
0.117202
0.117118
0.117038
0.116962
0.11689
0.116822
0.116758
0.116699
0.116645
0.116595
0.116549
0.116508
0.116471
0.116438
0.116408
0.116383
0.11636
0.116341
0.116324
0.11631
0.116298
0.116289
0.116281
0.116275
0.116271
0.116269
0.116268
0.116269
0.116272
0.116276
0.116276
0.1
0.100137
0.10028
0.100414
0.100526
0.100612
0.100672
0.10071
0.100736
0.100756
0.100774
0.100793
0.100812
0.100828
0.100841
0.10085
0.100859
0.100871
0.100891
0.100923
0.100972
0.101039
0.101124
0.101226
0.101345
0.101477
0.101621
0.101774
0.101934
0.102097
0.102262
0.102426
0.102586
0.102742
0.102892
0.103036
0.103176
0.103312
0.103447
0.103582
0.103721
0.103865
0.104016
0.104176
0.104346
0.104528
0.104724
0.104933
0.105158
0.105398
0.105653
0.105923
0.106207
0.106503
0.106809
0.107123
0.107443
0.107768
0.108094
0.108422
0.10875
0.109077
0.109404
0.10973
0.110056
0.110383
0.110712
0.111044
0.111382
0.111725
0.112076
0.112436
0.112806
0.113187
0.11358
0.113985
0.114403
0.114833
0.115275
0.115728
0.116192
0.116664
0.117143
0.117629
0.118118
0.11861
0.119103
0.119594
0.120084
0.120569
0.12105
0.121526
0.121995
0.122458
0.122915
0.123365
0.12381
0.124249
0.124683
0.125113
0.125539
0.125962
0.126383
0.126802
0.127219
0.127636
0.128051
0.128466
0.128879
0.12929
0.129699
0.130105
0.130508
0.130906
0.131298
0.131684
0.132061
0.13243
0.132788
0.133135
0.13347
0.133792
0.134101
0.134396
0.134677
0.134943
0.135195
0.135434
0.135659
0.135872
0.136072
0.136262
0.136442
0.136613
0.136776
0.136933
0.137084
0.137231
0.137374
0.137514
0.137653
0.13779
0.137926
0.138062
0.138198
0.138333
0.138467
0.138601
0.138733
0.138864
0.138992
0.139117
0.139238
0.139354
0.139465
0.13957
0.139668
0.139759
0.139842
0.139916
0.139982
0.140039
0.140088
0.140127
0.140158
0.140182
0.140197
0.140205
0.140207
0.140203
0.140194
0.140181
0.140164
0.140143
0.140121
0.140097
0.140071
0.140045
0.140017
0.13999
0.139962
0.139934
0.139906
0.139877
0.139847
0.139816
0.139782
0.139747
0.139708
0.139666
0.13962
0.139569
0.139513
0.139452
0.139384
0.139311
0.139231
0.139145
0.139053
0.138955
0.13885
0.138741
0.138626
0.138506
0.138383
0.138257
0.138128
0.137997
0.137866
0.137734
0.137602
0.137471
0.137342
0.137214
0.137089
0.136966
0.136847
0.13673
0.136616
0.136504
0.136396
0.136289
0.136185
0.136082
0.13598
0.135878
0.135777
0.135676
0.135574
0.135471
0.135366
0.13526
0.135151
0.135041
0.134928
0.134814
0.134697
0.134579
0.134458
0.134337
0.134215
0.134092
0.133968
0.133845
0.133723
0.133601
0.13348
0.133361
0.133243
0.133127
0.133013
0.1329
0.132789
0.132679
0.132571
0.132463
0.132355
0.132247
0.132139
0.13203
0.13192
0.131808
0.131694
0.131577
0.131457
0.131334
0.131207
0.131077
0.130944
0.130807
0.130668
0.130524
0.130379
0.13023
0.13008
0.129928
0.129775
0.129621
0.129467
0.129313
0.12916
0.129008
0.128857
0.128707
0.128559
0.128412
0.128268
0.128125
0.127983
0.127844
0.127705
0.127567
0.12743
0.127293
0.127156
0.127018
0.12688
0.126741
0.126601
0.126459
0.126316
0.126171
0.126025
0.125877
0.125728
0.125577
0.125426
0.125274
0.125122
0.12497
0.124818
0.124667
0.124516
0.124367
0.12422
0.124075
0.123931
0.123789
0.12365
0.123512
0.123376
0.123242
0.12311
0.122979
0.122848
0.122718
0.122589
0.12246
0.12233
0.122199
0.122068
0.121936
0.121802
0.121667
0.121531
0.121393
0.121254
0.121113
0.120972
0.12083
0.120687
0.120544
0.120401
0.120259
0.120117
0.119976
0.119836
0.119698
0.119562
0.119427
0.119295
0.119164
0.119036
0.11891
0.118786
0.118665
0.118545
0.118428
0.118313
0.1182
0.118089
0.117981
0.117874
0.11777
0.117669
0.117569
0.117473
0.117379
0.117289
0.117202
0.117118
0.117038
0.116962
0.11689
0.116822
0.116759
0.1167
0.116646
0.116596
0.11655
0.116509
0.116472
0.116439
0.11641
0.116384
0.116362
0.116342
0.116326
0.116312
0.1163
0.11629
0.116283
0.116277
0.116273
0.116271
0.11627
0.116271
0.116274
0.116278
0.116278
0.1
0.100137
0.100279
0.100413
0.100526
0.100611
0.100671
0.10071
0.100735
0.100755
0.100773
0.100793
0.100811
0.100827
0.10084
0.100849
0.100858
0.10087
0.10089
0.100923
0.100971
0.101038
0.101123
0.101225
0.101344
0.101476
0.10162
0.101773
0.101933
0.102096
0.102261
0.102425
0.102585
0.102741
0.10289
0.103035
0.103174
0.10331
0.103445
0.103581
0.103719
0.103863
0.104014
0.104174
0.104344
0.104526
0.104722
0.104931
0.105156
0.105396
0.105651
0.105921
0.106205
0.1065
0.106806
0.10712
0.10744
0.107765
0.108092
0.108419
0.108747
0.109075
0.109401
0.109727
0.110053
0.11038
0.110709
0.111042
0.111379
0.111723
0.112074
0.112434
0.112804
0.113186
0.113579
0.113984
0.114402
0.114833
0.115275
0.115728
0.116192
0.116664
0.117144
0.11763
0.118119
0.118612
0.119104
0.119596
0.120086
0.120572
0.121053
0.121529
0.121998
0.122461
0.122918
0.123369
0.123814
0.124253
0.124687
0.125117
0.125544
0.125967
0.126388
0.126807
0.127225
0.127642
0.128057
0.128472
0.128885
0.129297
0.129706
0.130112
0.130515
0.130913
0.131305
0.13169
0.132068
0.132436
0.132795
0.133142
0.133477
0.133799
0.134108
0.134402
0.134683
0.134949
0.135202
0.13544
0.135665
0.135878
0.136078
0.136268
0.136448
0.136619
0.136782
0.136939
0.13709
0.137237
0.13738
0.13752
0.137659
0.137796
0.137932
0.138068
0.138203
0.138338
0.138473
0.138606
0.138738
0.138869
0.138997
0.139122
0.139242
0.139359
0.13947
0.139574
0.139672
0.139763
0.139846
0.13992
0.139986
0.140043
0.140091
0.140131
0.140162
0.140185
0.1402
0.140209
0.14021
0.140206
0.140197
0.140184
0.140166
0.140146
0.140124
0.140099
0.140074
0.140047
0.14002
0.139993
0.139965
0.139937
0.139908
0.139879
0.139849
0.139818
0.139784
0.139748
0.13971
0.139667
0.139621
0.13957
0.139514
0.139453
0.139386
0.139312
0.139233
0.139147
0.139054
0.138956
0.138852
0.138742
0.138627
0.138508
0.138385
0.138259
0.13813
0.137999
0.137868
0.137736
0.137604
0.137473
0.137344
0.137216
0.137091
0.136969
0.136849
0.136732
0.136618
0.136507
0.136398
0.136292
0.136187
0.136084
0.135983
0.135881
0.13578
0.135679
0.135577
0.135474
0.135369
0.135263
0.135155
0.135044
0.134932
0.134817
0.134701
0.134582
0.134462
0.134341
0.134219
0.134096
0.133973
0.13385
0.133727
0.133605
0.133485
0.133366
0.133248
0.133132
0.133018
0.132905
0.132794
0.132684
0.132575
0.132467
0.13236
0.132252
0.132144
0.132035
0.131924
0.131812
0.131698
0.131581
0.131461
0.131338
0.131211
0.131081
0.130948
0.130811
0.130671
0.130528
0.130382
0.130234
0.130083
0.129931
0.129778
0.129624
0.12947
0.129316
0.129163
0.12901
0.128859
0.128709
0.128561
0.128414
0.12827
0.128127
0.127985
0.127845
0.127706
0.127568
0.127431
0.127294
0.127156
0.127019
0.126881
0.126741
0.126601
0.126459
0.126316
0.126171
0.126025
0.125877
0.125728
0.125577
0.125426
0.125274
0.125121
0.124969
0.124817
0.124666
0.124516
0.124367
0.124219
0.124074
0.12393
0.123788
0.123649
0.123511
0.123375
0.123241
0.123109
0.122977
0.122847
0.122717
0.122588
0.122458
0.122329
0.122198
0.122067
0.121935
0.121801
0.121666
0.12153
0.121392
0.121253
0.121112
0.120971
0.120829
0.120686
0.120543
0.120401
0.120258
0.120116
0.119976
0.119836
0.119698
0.119562
0.119427
0.119295
0.119164
0.119036
0.11891
0.118786
0.118665
0.118546
0.118429
0.118314
0.118201
0.11809
0.117982
0.117875
0.117771
0.11767
0.11757
0.117474
0.11738
0.11729
0.117203
0.117119
0.117039
0.116963
0.116891
0.116823
0.11676
0.116701
0.116647
0.116597
0.116551
0.11651
0.116473
0.11644
0.116411
0.116385
0.116363
0.116344
0.116327
0.116313
0.116301
0.116292
0.116284
0.116278
0.116274
0.116272
0.116271
0.116272
0.116275
0.116279
0.116279
0.1
0.100136
0.100278
0.100411
0.100523
0.100609
0.100668
0.100707
0.100733
0.100752
0.100771
0.10079
0.100809
0.100825
0.100837
0.100847
0.100856
0.100868
0.100888
0.10092
0.100969
0.101036
0.101121
0.101223
0.101342
0.101474
0.101618
0.10177
0.10193
0.102093
0.102258
0.102421
0.102581
0.102736
0.102886
0.10303
0.103169
0.103305
0.10344
0.103576
0.103714
0.103858
0.104009
0.104168
0.104338
0.10452
0.104716
0.104925
0.10515
0.105389
0.105645
0.105914
0.106198
0.106493
0.106799
0.107113
0.107433
0.107757
0.108083
0.108411
0.108739
0.109066
0.109392
0.109718
0.110045
0.110372
0.110701
0.111034
0.111372
0.111716
0.112068
0.112428
0.112799
0.113181
0.113575
0.113981
0.1144
0.114831
0.115274
0.115728
0.116193
0.116666
0.117146
0.117633
0.118123
0.118616
0.119109
0.119602
0.120092
0.120578
0.12106
0.121537
0.122007
0.122471
0.122928
0.12338
0.123825
0.124265
0.1247
0.125131
0.125558
0.125982
0.126404
0.126824
0.127242
0.12766
0.128076
0.128491
0.128904
0.129316
0.129726
0.130132
0.130535
0.130933
0.131325
0.131711
0.132088
0.132456
0.132814
0.133161
0.133496
0.133818
0.134127
0.134421
0.134702
0.134968
0.13522
0.135458
0.135683
0.135896
0.136096
0.136286
0.136466
0.136637
0.1368
0.136957
0.137108
0.137254
0.137397
0.137538
0.137676
0.137813
0.13795
0.138085
0.13822
0.138355
0.138489
0.138622
0.138754
0.138884
0.139012
0.139136
0.139257
0.139373
0.139483
0.139587
0.139685
0.139775
0.139858
0.139932
0.139997
0.140054
0.140102
0.140142
0.140173
0.140195
0.140211
0.140219
0.140221
0.140217
0.140207
0.140194
0.140176
0.140156
0.140133
0.140109
0.140083
0.140057
0.140029
0.140002
0.139974
0.139946
0.139917
0.139888
0.139857
0.139825
0.139792
0.139756
0.139717
0.139674
0.139628
0.139577
0.139521
0.139459
0.139392
0.139319
0.139239
0.139153
0.139061
0.138962
0.138858
0.138748
0.138634
0.138515
0.138392
0.138265
0.138137
0.138006
0.137875
0.137743
0.137611
0.13748
0.137351
0.137224
0.137099
0.136976
0.136857
0.13674
0.136626
0.136515
0.136406
0.136299
0.136195
0.136092
0.13599
0.135889
0.135788
0.135687
0.135585
0.135481
0.135377
0.135271
0.135162
0.135052
0.13494
0.134825
0.134709
0.134591
0.134471
0.13435
0.134227
0.134105
0.133982
0.133859
0.133736
0.133615
0.133494
0.133375
0.133257
0.133141
0.133027
0.132914
0.132803
0.132693
0.132584
0.132476
0.132368
0.132261
0.132152
0.132043
0.131933
0.13182
0.131706
0.131589
0.131469
0.131345
0.131219
0.131089
0.130955
0.130819
0.130678
0.130535
0.130389
0.130241
0.130091
0.129938
0.129785
0.129631
0.129477
0.129323
0.129169
0.129017
0.128865
0.128715
0.128567
0.12842
0.128275
0.128132
0.12799
0.12785
0.127711
0.127573
0.127435
0.127298
0.127161
0.127023
0.126885
0.126745
0.126605
0.126463
0.126319
0.126174
0.126028
0.12588
0.125731
0.12558
0.125429
0.125277
0.125124
0.124972
0.12482
0.124668
0.124518
0.124369
0.124222
0.124076
0.123932
0.12379
0.123651
0.123513
0.123377
0.123243
0.12311
0.122979
0.122849
0.122719
0.122589
0.12246
0.12233
0.1222
0.122068
0.121936
0.121803
0.121668
0.121531
0.121393
0.121254
0.121114
0.120973
0.120831
0.120688
0.120545
0.120403
0.12026
0.120119
0.119978
0.119838
0.1197
0.119564
0.119429
0.119297
0.119167
0.119038
0.118913
0.118789
0.118667
0.118548
0.118431
0.118316
0.118203
0.118093
0.117984
0.117878
0.117774
0.117672
0.117573
0.117476
0.117383
0.117292
0.117205
0.117121
0.117041
0.116965
0.116893
0.116826
0.116762
0.116703
0.116649
0.116599
0.116553
0.116512
0.116475
0.116442
0.116412
0.116387
0.116364
0.116345
0.116328
0.116314
0.116302
0.116292
0.116285
0.116279
0.116275
0.116272
0.116272
0.116273
0.116275
0.11628
0.11628
0.1
0.100135
0.100276
0.100408
0.100519
0.100604
0.100663
0.100702
0.100728
0.100748
0.100767
0.100786
0.100804
0.10082
0.100833
0.100842
0.100851
0.100863
0.100884
0.100917
0.100965
0.101032
0.101117
0.101219
0.101338
0.10147
0.101613
0.101766
0.101925
0.102088
0.102252
0.102415
0.102574
0.102729
0.102879
0.103022
0.103161
0.103297
0.103432
0.103567
0.103705
0.103849
0.103999
0.104159
0.104329
0.104511
0.104706
0.104915
0.105139
0.105379
0.105634
0.105903
0.106186
0.106481
0.106786
0.1071
0.107419
0.107743
0.108069
0.108397
0.108724
0.109051
0.109378
0.109704
0.11003
0.110358
0.110688
0.111021
0.11136
0.111704
0.112057
0.112419
0.112791
0.113174
0.113569
0.113976
0.114396
0.114829
0.115273
0.115729
0.116194
0.116668
0.11715
0.117638
0.118129
0.118623
0.119117
0.119611
0.120102
0.12059
0.121073
0.12155
0.122021
0.122486
0.122945
0.123398
0.123844
0.124286
0.124722
0.125154
0.125582
0.126008
0.126431
0.126852
0.127271
0.127689
0.128106
0.128522
0.128936
0.129348
0.129758
0.130165
0.130568
0.130966
0.131359
0.131744
0.132121
0.132489
0.132847
0.133194
0.133528
0.13385
0.134158
0.134452
0.134733
0.134998
0.13525
0.135489
0.135713
0.135926
0.136126
0.136316
0.136496
0.136667
0.13683
0.136986
0.137138
0.137284
0.137427
0.137567
0.137706
0.137842
0.137978
0.138114
0.138248
0.138383
0.138516
0.138649
0.13878
0.13891
0.139037
0.13916
0.13928
0.139396
0.139505
0.139609
0.139706
0.139796
0.139878
0.139951
0.140017
0.140073
0.140121
0.14016
0.140191
0.140213
0.140228
0.140236
0.140238
0.140234
0.140225
0.140211
0.140193
0.140173
0.14015
0.140126
0.1401
0.140073
0.140045
0.140017
0.139989
0.139961
0.139932
0.139902
0.139871
0.139839
0.139805
0.139769
0.13973
0.139687
0.13964
0.139589
0.139532
0.139471
0.139403
0.13933
0.13925
0.139164
0.139071
0.138973
0.138869
0.138759
0.138645
0.138526
0.138403
0.138277
0.138149
0.138018
0.137887
0.137755
0.137624
0.137493
0.137364
0.137237
0.137112
0.136989
0.13687
0.136753
0.136639
0.136527
0.136419
0.136312
0.136207
0.136104
0.136002
0.135901
0.1358
0.135699
0.135596
0.135493
0.135389
0.135283
0.135174
0.135064
0.134952
0.134838
0.134721
0.134603
0.134484
0.134363
0.134241
0.134118
0.133995
0.133872
0.13375
0.133628
0.133508
0.133389
0.133271
0.133155
0.133041
0.132928
0.132817
0.132706
0.132597
0.132489
0.132381
0.132273
0.132165
0.132056
0.131945
0.131832
0.131718
0.1316
0.13148
0.131357
0.13123
0.1311
0.130967
0.13083
0.130689
0.130546
0.1304
0.130252
0.130101
0.129949
0.129796
0.129642
0.129488
0.129333
0.12918
0.129027
0.128875
0.128725
0.128577
0.12843
0.128285
0.128141
0.127999
0.127859
0.12772
0.127581
0.127443
0.127306
0.127168
0.12703
0.126892
0.126752
0.126612
0.12647
0.126326
0.126181
0.126034
0.125886
0.125737
0.125586
0.125435
0.125283
0.12513
0.124978
0.124826
0.124675
0.124524
0.124375
0.124228
0.124082
0.123938
0.123796
0.123656
0.123518
0.123382
0.123248
0.123115
0.122984
0.122853
0.122723
0.122594
0.122464
0.122334
0.122204
0.122073
0.12194
0.121807
0.121672
0.121535
0.121398
0.121258
0.121118
0.120977
0.120835
0.120693
0.12055
0.120407
0.120265
0.120123
0.119982
0.119843
0.119705
0.119568
0.119434
0.119302
0.119171
0.119043
0.118917
0.118793
0.118672
0.118553
0.118435
0.11832
0.118207
0.118097
0.117988
0.117882
0.117778
0.117676
0.117577
0.11748
0.117387
0.117296
0.117209
0.117125
0.117045
0.116969
0.116897
0.116829
0.116765
0.116706
0.116651
0.116601
0.116555
0.116514
0.116477
0.116443
0.116414
0.116388
0.116365
0.116346
0.116329
0.116314
0.116303
0.116293
0.116285
0.116279
0.116275
0.116272
0.116271
0.116272
0.116275
0.116279
0.116279
0.1
0.100134
0.100273
0.100403
0.100513
0.100597
0.100656
0.100696
0.100722
0.100743
0.100762
0.100781
0.100799
0.100814
0.100827
0.100836
0.100845
0.100858
0.100878
0.100911
0.10096
0.101027
0.101112
0.101214
0.101332
0.101464
0.101607
0.101759
0.101918
0.10208
0.102243
0.102406
0.102565
0.102719
0.102868
0.103011
0.10315
0.103286
0.10342
0.103555
0.103693
0.103836
0.103987
0.104146
0.104315
0.104497
0.104692
0.104901
0.105125
0.105364
0.105618
0.105888
0.10617
0.106465
0.106769
0.107082
0.107401
0.107724
0.10805
0.108377
0.108704
0.109031
0.109357
0.109683
0.11001
0.110338
0.110669
0.111003
0.111342
0.111688
0.112042
0.112405
0.112779
0.113163
0.11356
0.113969
0.114391
0.114825
0.115271
0.115729
0.116196
0.116672
0.117155
0.117644
0.118137
0.118633
0.119129
0.119624
0.120116
0.120605
0.12109
0.121569
0.122042
0.122508
0.122969
0.123423
0.123871
0.124314
0.124752
0.125186
0.125616
0.126043
0.126468
0.12689
0.127311
0.127731
0.128149
0.128566
0.128981
0.129394
0.129804
0.130212
0.130615
0.131013
0.131406
0.131791
0.132168
0.132536
0.132893
0.133239
0.133573
0.133895
0.134202
0.134496
0.134776
0.135041
0.135293
0.135531
0.135756
0.135968
0.136168
0.136358
0.136537
0.136708
0.136871
0.137028
0.137179
0.137326
0.137468
0.137608
0.137746
0.137883
0.138019
0.138153
0.138288
0.138421
0.138554
0.138686
0.138817
0.138945
0.139072
0.139194
0.139313
0.139428
0.139537
0.13964
0.139736
0.139825
0.139906
0.139979
0.140044
0.1401
0.140147
0.140186
0.140216
0.140238
0.140253
0.140261
0.140263
0.140258
0.140249
0.140235
0.140217
0.140197
0.140174
0.140149
0.140123
0.140096
0.140068
0.14004
0.140011
0.139982
0.139953
0.139923
0.139891
0.139859
0.139824
0.139787
0.139748
0.139705
0.139657
0.139606
0.139549
0.139487
0.139419
0.139345
0.139265
0.139179
0.139087
0.138989
0.138885
0.138775
0.138661
0.138542
0.13842
0.138294
0.138166
0.138035
0.137904
0.137773
0.137642
0.137511
0.137382
0.137255
0.13713
0.137007
0.136888
0.136771
0.136657
0.136545
0.136436
0.136329
0.136225
0.136121
0.136019
0.135918
0.135816
0.135715
0.135613
0.13551
0.135405
0.135299
0.135191
0.135081
0.134969
0.134854
0.134738
0.13462
0.134501
0.13438
0.134258
0.134136
0.134013
0.13389
0.133768
0.133647
0.133526
0.133407
0.13329
0.133174
0.133059
0.132946
0.132835
0.132724
0.132615
0.132507
0.132399
0.13229
0.132182
0.132072
0.131961
0.131848
0.131733
0.131616
0.131495
0.131372
0.131245
0.131115
0.130981
0.130844
0.130704
0.130561
0.130415
0.130266
0.130116
0.129964
0.12981
0.129656
0.129502
0.129348
0.129194
0.129041
0.128889
0.128739
0.12859
0.128443
0.128298
0.128154
0.128012
0.127871
0.127732
0.127593
0.127455
0.127317
0.127179
0.127041
0.126902
0.126763
0.126622
0.12648
0.126336
0.126191
0.126044
0.125896
0.125747
0.125596
0.125445
0.125292
0.12514
0.124988
0.124835
0.124684
0.124534
0.124384
0.124237
0.124091
0.123947
0.123805
0.123665
0.123527
0.123391
0.123256
0.123123
0.122992
0.122861
0.122731
0.122601
0.122471
0.122341
0.122211
0.122079
0.121947
0.121813
0.121678
0.121542
0.121404
0.121265
0.121125
0.120984
0.120842
0.120699
0.120557
0.120414
0.120272
0.12013
0.119989
0.11985
0.119712
0.119575
0.119441
0.119308
0.119178
0.11905
0.118924
0.1188
0.118678
0.118559
0.118442
0.118327
0.118214
0.118103
0.117994
0.117888
0.117783
0.117682
0.117582
0.117486
0.117392
0.117301
0.117214
0.11713
0.117049
0.116973
0.116901
0.116833
0.116769
0.116709
0.116655
0.116604
0.116558
0.116516
0.116479
0.116445
0.116415
0.116389
0.116366
0.116346
0.116329
0.116315
0.116303
0.116293
0.116285
0.116278
0.116274
0.116271
0.11627
0.116271
0.116273
0.116278
0.116278
0.1
0.100132
0.100269
0.100397
0.100505
0.100589
0.100648
0.100688
0.100715
0.100736
0.100755
0.100773
0.100791
0.100807
0.100819
0.100828
0.100837
0.10085
0.100871
0.100904
0.100954
0.10102
0.101105
0.101207
0.101325
0.101456
0.101599
0.101751
0.101908
0.10207
0.102233
0.102394
0.102553
0.102706
0.102855
0.102998
0.103136
0.103271
0.103405
0.10354
0.103677
0.10382
0.10397
0.104129
0.104298
0.104479
0.104674
0.104882
0.105106
0.105345
0.105599
0.105867
0.106149
0.106443
0.106747
0.107059
0.107377
0.1077
0.108025
0.108351
0.108678
0.109004
0.109331
0.109657
0.109984
0.110313
0.110644
0.110979
0.11132
0.111667
0.112023
0.112388
0.112763
0.11315
0.113549
0.11396
0.114384
0.114821
0.115269
0.115729
0.116198
0.116677
0.117162
0.117653
0.118148
0.118646
0.119143
0.11964
0.120135
0.120626
0.121112
0.121593
0.122068
0.122536
0.122999
0.123455
0.123906
0.124351
0.124791
0.125227
0.12566
0.126089
0.126515
0.12694
0.127363
0.127784
0.128204
0.128622
0.129038
0.129452
0.129864
0.130272
0.130675
0.131074
0.131466
0.131851
0.132228
0.132595
0.132952
0.133298
0.133631
0.133952
0.134259
0.134552
0.134831
0.135096
0.135348
0.135585
0.13581
0.136021
0.136222
0.136411
0.136591
0.136762
0.136925
0.137081
0.137232
0.137379
0.137521
0.137661
0.137799
0.137935
0.13807
0.138204
0.138338
0.138471
0.138603
0.138734
0.138864
0.138991
0.139116
0.139238
0.139356
0.139469
0.139577
0.139679
0.139774
0.139862
0.139943
0.140015
0.140078
0.140134
0.14018
0.140219
0.140249
0.140271
0.140285
0.140293
0.140294
0.14029
0.14028
0.140266
0.140248
0.140228
0.140205
0.140179
0.140153
0.140126
0.140097
0.140069
0.14004
0.14001
0.13998
0.139949
0.139918
0.139884
0.139849
0.139812
0.139771
0.139728
0.13968
0.139628
0.139571
0.139508
0.13944
0.139366
0.139286
0.1392
0.139107
0.139009
0.138905
0.138796
0.138682
0.138563
0.138441
0.138315
0.138188
0.138058
0.137927
0.137796
0.137664
0.137534
0.137405
0.137278
0.137153
0.137031
0.136911
0.136794
0.136679
0.136568
0.136459
0.136352
0.136247
0.136143
0.136041
0.135939
0.135837
0.135736
0.135634
0.13553
0.135426
0.135319
0.135211
0.135101
0.134989
0.134875
0.134759
0.134642
0.134522
0.134402
0.13428
0.134158
0.134036
0.133913
0.133791
0.13367
0.133549
0.13343
0.133313
0.133197
0.133082
0.132969
0.132857
0.132747
0.132637
0.132528
0.13242
0.132311
0.132202
0.132092
0.131981
0.131868
0.131753
0.131635
0.131514
0.131391
0.131264
0.131133
0.131
0.130862
0.130722
0.130579
0.130433
0.130285
0.130134
0.129982
0.129829
0.129675
0.12952
0.129366
0.129212
0.129059
0.128907
0.128757
0.128608
0.12846
0.128315
0.128171
0.128028
0.127887
0.127747
0.127608
0.12747
0.127332
0.127194
0.127056
0.126917
0.126777
0.126636
0.126493
0.126349
0.126204
0.126057
0.125909
0.12576
0.125609
0.125458
0.125305
0.125153
0.125
0.124848
0.124697
0.124546
0.124397
0.124249
0.124103
0.123959
0.123817
0.123677
0.123538
0.123402
0.123267
0.123134
0.123002
0.122871
0.122741
0.122611
0.122481
0.122351
0.12222
0.122089
0.121956
0.121822
0.121687
0.121551
0.121413
0.121274
0.121134
0.120993
0.120851
0.120709
0.120566
0.120423
0.120281
0.120139
0.119999
0.119859
0.119721
0.119585
0.11945
0.119317
0.119187
0.119059
0.118932
0.118808
0.118687
0.118567
0.11845
0.118335
0.118221
0.11811
0.118002
0.117895
0.117791
0.117689
0.117589
0.117492
0.117398
0.117307
0.11722
0.117136
0.117055
0.116978
0.116906
0.116837
0.116773
0.116714
0.116658
0.116608
0.116561
0.116519
0.116481
0.116447
0.116417
0.11639
0.116367
0.116347
0.116329
0.116315
0.116302
0.116292
0.116284
0.116277
0.116273
0.11627
0.116269
0.116269
0.116271
0.116276
0.116276
0.1
0.10013
0.100264
0.10039
0.100496
0.100579
0.100638
0.100678
0.100705
0.100727
0.100746
0.100765
0.100782
0.100797
0.100809
0.100818
0.100828
0.100841
0.100862
0.100896
0.100945
0.101012
0.101097
0.101199
0.101317
0.101447
0.101589
0.10174
0.101897
0.102058
0.10222
0.10238
0.102538
0.102691
0.102838
0.10298
0.103118
0.103253
0.103386
0.103521
0.103658
0.103801
0.10395
0.104108
0.104277
0.104458
0.104652
0.10486
0.105083
0.105321
0.105575
0.105842
0.106124
0.106417
0.10672
0.107031
0.107348
0.10767
0.107994
0.10832
0.108646
0.108972
0.109298
0.109625
0.109952
0.110282
0.110614
0.11095
0.111293
0.111642
0.111999
0.112366
0.112744
0.113133
0.113535
0.113949
0.114376
0.114815
0.115266
0.115729
0.116201
0.116682
0.11717
0.117664
0.118161
0.118661
0.119161
0.11966
0.120157
0.12065
0.121139
0.121622
0.1221
0.122571
0.123036
0.123495
0.123948
0.124396
0.124839
0.125278
0.125713
0.126145
0.126574
0.127001
0.127426
0.127849
0.128271
0.128691
0.129108
0.129524
0.129936
0.130345
0.130749
0.131147
0.13154
0.131925
0.132301
0.132668
0.133024
0.133369
0.133702
0.134022
0.134328
0.134621
0.134899
0.135164
0.135414
0.135651
0.135875
0.136087
0.136287
0.136477
0.136656
0.136827
0.13699
0.137146
0.137297
0.137443
0.137586
0.137726
0.137863
0.137999
0.138133
0.138267
0.138399
0.138531
0.138663
0.138793
0.138921
0.139047
0.139171
0.139292
0.139408
0.13952
0.139626
0.139727
0.139821
0.139908
0.139987
0.140058
0.140121
0.140175
0.140221
0.140259
0.140289
0.14031
0.140325
0.140332
0.140333
0.140328
0.140318
0.140304
0.140286
0.140265
0.140242
0.140217
0.14019
0.140162
0.140133
0.140104
0.140075
0.140044
0.140014
0.139982
0.13995
0.139916
0.13988
0.139841
0.1398
0.139756
0.139707
0.139655
0.139597
0.139534
0.139466
0.139391
0.139311
0.139225
0.139132
0.139034
0.13893
0.138821
0.138707
0.138589
0.138467
0.138342
0.138214
0.138085
0.137954
0.137823
0.137692
0.137562
0.137434
0.137307
0.137182
0.137059
0.136939
0.136822
0.136707
0.136595
0.136486
0.136379
0.136273
0.136169
0.136067
0.135965
0.135863
0.135761
0.135659
0.135555
0.13545
0.135344
0.135236
0.135126
0.135014
0.1349
0.134785
0.134667
0.134548
0.134428
0.134307
0.134185
0.134062
0.13394
0.133818
0.133697
0.133577
0.133458
0.13334
0.133224
0.133109
0.132996
0.132884
0.132773
0.132663
0.132554
0.132445
0.132336
0.132227
0.132117
0.132005
0.131891
0.131776
0.131658
0.131537
0.131413
0.131286
0.131155
0.131021
0.130884
0.130744
0.130601
0.130455
0.130306
0.130156
0.130004
0.129851
0.129697
0.129542
0.129388
0.129234
0.129081
0.128929
0.128778
0.128629
0.128481
0.128336
0.128191
0.128048
0.127907
0.127767
0.127627
0.127489
0.12735
0.127212
0.127073
0.126934
0.126794
0.126652
0.12651
0.126366
0.126221
0.126074
0.125926
0.125776
0.125625
0.125474
0.125322
0.125169
0.125017
0.124864
0.124713
0.124562
0.124413
0.124265
0.124119
0.123974
0.123832
0.123692
0.123553
0.123416
0.123281
0.123148
0.123016
0.122885
0.122754
0.122624
0.122494
0.122363
0.122232
0.122101
0.121968
0.121834
0.121699
0.121563
0.121425
0.121286
0.121146
0.121005
0.120863
0.12072
0.120578
0.120435
0.120293
0.120151
0.12001
0.119871
0.119733
0.119596
0.119461
0.119329
0.119198
0.119069
0.118943
0.118819
0.118697
0.118577
0.11846
0.118344
0.118231
0.11812
0.118011
0.117904
0.117799
0.117697
0.117597
0.1175
0.117406
0.117315
0.117227
0.117142
0.117062
0.116985
0.116912
0.116843
0.116778
0.116718
0.116663
0.116612
0.116565
0.116522
0.116484
0.116449
0.116419
0.116392
0.116368
0.116347
0.116329
0.116314
0.116301
0.116291
0.116282
0.116275
0.11627
0.116267
0.116266
0.116266
0.116268
0.116272
0.116272
0.1
0.100127
0.100259
0.100381
0.100486
0.100567
0.100625
0.100666
0.100694
0.100717
0.100736
0.100755
0.100772
0.100786
0.100798
0.100807
0.100817
0.10083
0.100852
0.100886
0.100936
0.101003
0.101088
0.101189
0.101306
0.101437
0.101578
0.101728
0.101884
0.102043
0.102204
0.102364
0.10252
0.102672
0.102819
0.10296
0.103097
0.103232
0.103365
0.103498
0.103635
0.103777
0.103926
0.104084
0.104252
0.104432
0.104626
0.104833
0.105056
0.105293
0.105546
0.105813
0.106093
0.106385
0.106687
0.106997
0.107313
0.107634
0.107957
0.108282
0.108608
0.108934
0.10926
0.109587
0.109915
0.110245
0.110578
0.110916
0.11126
0.111611
0.111971
0.11234
0.112721
0.113113
0.113518
0.113935
0.114366
0.114808
0.115263
0.115729
0.116204
0.116688
0.11718
0.117676
0.118177
0.118679
0.119182
0.119684
0.120184
0.12068
0.121171
0.121657
0.122137
0.122612
0.12308
0.123542
0.123998
0.124449
0.124896
0.125338
0.125776
0.126211
0.126643
0.127073
0.1275
0.127926
0.12835
0.128772
0.129191
0.129608
0.130021
0.130431
0.130836
0.131235
0.131627
0.132012
0.132387
0.132754
0.133109
0.133454
0.133785
0.134104
0.13441
0.134701
0.134979
0.135243
0.135493
0.13573
0.135953
0.136165
0.136364
0.136554
0.136733
0.136904
0.137067
0.137223
0.137374
0.13752
0.137662
0.137801
0.137938
0.138073
0.138207
0.13834
0.138472
0.138603
0.138733
0.138861
0.138988
0.139113
0.139236
0.139354
0.139469
0.13958
0.139685
0.139784
0.139876