# vtk DataFile Version 3.0
LBM Fluid Grid
ASCII
DATASET STRUCTURED_POINTS
DIMENSIONS 400 150 1
ORIGIN 0 0 0
SPACING 1 1 1
POINT_DATA 60000
SCALARS VelocityMagnitude double 1
LOOKUP_TABLE default
0.1
0.0999935
0.0999968
0.100009
0.100031
0.10006
0.100096
0.100138
0.100186
0.100237
0.100293
0.100351
0.100412
0.100476
0.100541
0.100608
0.100677
0.100748
0.100822
0.100898
0.100978
0.101061
0.101149
0.101242
0.10134
0.101443
0.101553
0.10167
0.101793
0.101924
0.102062
0.102208
0.102362
0.102523
0.102692
0.102869
0.103055
0.103248
0.103448
0.103657
0.103874
0.104098
0.104331
0.104571
0.10482
0.105077
0.105342
0.105616
0.105898
0.106189
0.10649
0.106799
0.107118
0.107447
0.107785
0.108133
0.108492
0.10886
0.109239
0.109628
0.110027
0.110436
0.110856
0.111286
0.111726
0.112176
0.112635
0.113105
0.113583
0.114071
0.114567
0.115071
0.115584
0.116105
0.116632
0.117167
0.117708
0.118255
0.118808
0.119365
0.119927
0.120493
0.121062
0.121634
0.122208
0.122784
0.12336
0.123937
0.124513
0.125088
0.125662
0.126233
0.126801
0.127365
0.127925
0.128479
0.129029
0.129571
0.130107
0.130635
0.131155
0.131667
0.132169
0.132662
0.133144
0.133616
0.134076
0.134525
0.134963
0.135388
0.135801
0.136202
0.13659
0.136964
0.137326
0.137675
0.13801
0.138332
0.138641
0.138936
0.139219
0.139488
0.139744
0.139987
0.140218
0.140436
0.140641
0.140835
0.141016
0.141186
0.141344
0.14149
0.141626
0.141751
0.141865
0.141969
0.142064
0.142148
0.142223
0.142289
0.142346
0.142395
0.142435
0.142468
0.142492
0.14251
0.14252
0.142523
0.142519
0.14251
0.142494
0.142472
0.142445
0.142412
0.142374
0.142332
0.142284
0.142233
0.142177
0.142117
0.142053
0.141986
0.141915
0.141842
0.141765
0.141685
0.141603
0.141518
0.141431
0.141342
0.14125
0.141157
0.141062
0.140965
0.140867
0.140768
0.140667
0.140565
0.140462
0.140358
0.140253
0.140147
0.140041
0.139934
0.139826
0.139718
0.13961
0.139501
0.139392
0.139283
0.139174
0.139064
0.138955
0.138845
0.138736
0.138627
0.138518
0.138409
0.1383
0.138192
0.138084
0.137976
0.137869
0.137762
0.137655
0.137549
0.137444
0.137338
0.137234
0.13713
0.137026
0.136923
0.13682
0.136719
0.136617
0.136516
0.136416
0.136317
0.136218
0.13612
0.136022
0.135925
0.135829
0.135733
0.135638
0.135543
0.135449
0.135356
0.135264
0.135172
0.13508
0.13499
0.1349
0.13481
0.134722
0.134634
0.134546
0.134459
0.134373
0.134287
0.134202
0.134117
0.134034
0.13395
0.133867
0.133785
0.133704
0.133622
0.133542
0.133462
0.133382
0.133304
0.133225
0.133147
0.13307
0.132993
0.132916
0.13284
0.132765
0.13269
0.132615
0.132541
0.132468
0.132394
0.132322
0.132249
0.132177
0.132106
0.132035
0.131964
0.131894
0.131824
0.131754
0.131685
0.131616
0.131547
0.131479
0.131411
0.131344
0.131277
0.13121
0.131144
0.131077
0.131012
0.130946
0.130881
0.130816
0.130751
0.130687
0.130622
0.130559
0.130495
0.130432
0.130369
0.130306
0.130243
0.130181
0.130119
0.130057
0.129996
0.129934
0.129873
0.129812
0.129752
0.129691
0.129631
0.129571
0.129511
0.129452
0.129392
0.129333
0.129274
0.129215
0.129157
0.129099
0.12904
0.128983
0.128925
0.128867
0.12881
0.128753
0.128696
0.12864
0.128583
0.128527
0.128471
0.128415
0.12836
0.128305
0.12825
0.128195
0.12814
0.128086
0.128032
0.127978
0.127925
0.127872
0.127819
0.127766
0.127714
0.127662
0.127611
0.127559
0.127508
0.127458
0.127408
0.127358
0.127308
0.127259
0.12721
0.127162
0.127114
0.127067
0.12702
0.126974
0.126928
0.126882
0.126838
0.126793
0.126749
0.126706
0.126664
0.126622
0.12658
0.12654
0.1265
0.12646
0.126422
0.126384
0.126347
0.126311
0.126275
0.126241
0.126207
0.126174
0.126142
0.126111
0.126081
0.126052
0.126024
0.125997
0.125971
0.125947
0.125923
0.1259
0.125879
0.125859
0.12584
0.125822
0.125806
0.125791
0.125777
0.125765
0.125753
0.125743
0.125735
0.125727
0.125721
0.125716
0.125716
0.1
0.0999935
0.0999968
0.100009
0.100031
0.10006
0.100096
0.100138
0.100186
0.100238
0.100293
0.100352
0.100413
0.100476
0.100541
0.100608
0.100677
0.100748
0.100822
0.100899
0.100978
0.101062
0.10115
0.101242
0.10134
0.101444
0.101554
0.101671
0.101794
0.101925
0.102063
0.102209
0.102363
0.102524
0.102694
0.102871
0.103056
0.103249
0.10345
0.103659
0.103876
0.1041
0.104333
0.104573
0.104822
0.105079
0.105344
0.105618
0.1059
0.106192
0.106492
0.106802
0.10712
0.107449
0.107787
0.108136
0.108494
0.108862
0.109241
0.10963
0.110029
0.110438
0.110858
0.111288
0.111728
0.112177
0.112637
0.113106
0.113584
0.114072
0.114568
0.115072
0.115585
0.116105
0.116632
0.117167
0.117708
0.118254
0.118807
0.119364
0.119926
0.120491
0.12106
0.121632
0.122205
0.12278
0.123357
0.123933
0.124509
0.125084
0.125657
0.126228
0.126795
0.127359
0.127919
0.128473
0.129022
0.129565
0.1301
0.130628
0.131148
0.131659
0.132161
0.132654
0.133136
0.133607
0.134068
0.134517
0.134954
0.13538
0.135793
0.136193
0.136581
0.136956
0.137317
0.137666
0.138001
0.138324
0.138632
0.138928
0.13921
0.13948
0.139736
0.139979
0.14021
0.140428
0.140634
0.140827
0.141009
0.141178
0.141336
0.141483
0.141619
0.141744
0.141859
0.141963
0.142057
0.142142
0.142217
0.142283
0.142341
0.142389
0.14243
0.142462
0.142487
0.142505
0.142515
0.142518
0.142515
0.142505
0.142489
0.142468
0.142441
0.142408
0.142371
0.142328
0.142281
0.142229
0.142174
0.142114
0.142051
0.141983
0.141913
0.141839
0.141763
0.141683
0.141601
0.141516
0.141429
0.14134
0.141249
0.141156
0.141061
0.140964
0.140866
0.140767
0.140666
0.140564
0.140461
0.140357
0.140252
0.140147
0.140041
0.139934
0.139826
0.139718
0.13961
0.139502
0.139393
0.139284
0.139175
0.139065
0.138956
0.138847
0.138737
0.138628
0.138519
0.138411
0.138302
0.138194
0.138086
0.137978
0.137871
0.137764
0.137658
0.137552
0.137446
0.137341
0.137237
0.137133
0.137029
0.136926
0.136824
0.136722
0.136621
0.13652
0.13642
0.136321
0.136222
0.136124
0.136026
0.135929
0.135833
0.135737
0.135642
0.135548
0.135454
0.135361
0.135269
0.135177
0.135086
0.134995
0.134905
0.134816
0.134727
0.134639
0.134552
0.134465
0.134379
0.134293
0.134208
0.134124
0.13404
0.133957
0.133874
0.133792
0.133711
0.13363
0.133549
0.133469
0.13339
0.133311
0.133233
0.133155
0.133078
0.133001
0.132924
0.132849
0.132773
0.132698
0.132624
0.13255
0.132476
0.132403
0.132331
0.132258
0.132186
0.132115
0.132044
0.131973
0.131903
0.131833
0.131764
0.131694
0.131626
0.131557
0.131489
0.131421
0.131354
0.131287
0.13122
0.131154
0.131088
0.131022
0.130957
0.130891
0.130826
0.130762
0.130697
0.130633
0.13057
0.130506
0.130443
0.13038
0.130317
0.130255
0.130193
0.130131
0.130069
0.130007
0.129946
0.129885
0.129824
0.129764
0.129703
0.129643
0.129583
0.129523
0.129464
0.129405
0.129345
0.129287
0.129228
0.129169
0.129111
0.129053
0.128995
0.128938
0.12888
0.128823
0.128766
0.128709
0.128653
0.128596
0.12854
0.128484
0.128429
0.128373
0.128318
0.128263
0.128208
0.128154
0.1281
0.128046
0.127992
0.127939
0.127886
0.127833
0.12778
0.127728
0.127676
0.127625
0.127573
0.127522
0.127472
0.127422
0.127372
0.127322
0.127273
0.127225
0.127177
0.127129
0.127082
0.127035
0.126988
0.126942
0.126897
0.126852
0.126808
0.126764
0.126721
0.126678
0.126637
0.126595
0.126555
0.126515
0.126475
0.126437
0.126399
0.126362
0.126326
0.12629
0.126256
0.126222
0.126189
0.126157
0.126127
0.126097
0.126068
0.12604
0.126013
0.125987
0.125962
0.125938
0.125916
0.125895
0.125875
0.125856
0.125838
0.125822
0.125807
0.125793
0.12578
0.125769
0.125759
0.12575
0.125743
0.125737
0.125732
0.125732
0.1
0.0999935
0.0999968
0.100009
0.100031
0.10006
0.100096
0.100138
0.100186
0.100237
0.100293
0.100351
0.100412
0.100476
0.100541
0.100608
0.100677
0.100748
0.100822
0.100898
0.100978
0.101061
0.101149
0.101242
0.10134
0.101443
0.101553
0.10167
0.101793
0.101924
0.102062
0.102208
0.102362
0.102523
0.102692
0.102869
0.103055
0.103248
0.103448
0.103657
0.103874
0.104098
0.104331
0.104571
0.10482
0.105077
0.105342
0.105616
0.105898
0.106189
0.10649
0.106799
0.107118
0.107447
0.107785
0.108133
0.108492
0.10886
0.109239
0.109628
0.110027
0.110436
0.110856
0.111286
0.111726
0.112176
0.112635
0.113105
0.113583
0.114071
0.114567
0.115071
0.115584
0.116105
0.116632
0.117167
0.117708
0.118255
0.118808
0.119365
0.119927
0.120493
0.121062
0.121634
0.122208
0.122784
0.12336
0.123937
0.124513
0.125088
0.125662
0.126233
0.126801
0.127365
0.127925
0.128479
0.129029
0.129571
0.130107
0.130635
0.131155
0.131667
0.132169
0.132662
0.133144
0.133616
0.134076
0.134525
0.134963
0.135388
0.135801
0.136202
0.13659
0.136964
0.137326
0.137675
0.13801
0.138332
0.138641
0.138936
0.139219
0.139488
0.139744
0.139987
0.140218
0.140436
0.140641
0.140835
0.141016
0.141186
0.141344
0.14149
0.141626
0.141751
0.141865
0.141969
0.142064
0.142148
0.142223
0.142289
0.142346
0.142395
0.142435
0.142468
0.142492
0.14251
0.14252
0.142523
0.142519
0.14251
0.142494
0.142472
0.142445
0.142412
0.142374
0.142332
0.142284
0.142233
0.142177
0.142117
0.142053
0.141986
0.141915
0.141842
0.141765
0.141685
0.141603
0.141518
0.141431
0.141342
0.14125
0.141157
0.141062
0.140965
0.140867
0.140768
0.140667
0.140565
0.140462
0.140358
0.140253
0.140147
0.140041
0.139934
0.139826
0.139718
0.13961
0.139501
0.139392
0.139283
0.139174
0.139064
0.138955
0.138845
0.138736
0.138627
0.138518
0.138409
0.1383
0.138192
0.138084
0.137976
0.137869
0.137762
0.137655
0.137549
0.137444
0.137338
0.137234
0.13713
0.137026
0.136923
0.13682
0.136719
0.136617
0.136516
0.136416
0.136317
0.136218
0.13612
0.136022
0.135925
0.135829
0.135733
0.135638
0.135543
0.135449
0.135356
0.135264
0.135172
0.13508
0.13499
0.1349
0.13481
0.134722
0.134634
0.134546
0.134459
0.134373
0.134287
0.134202
0.134117
0.134034
0.13395
0.133867
0.133785
0.133704
0.133622
0.133542
0.133462
0.133382
0.133304
0.133225
0.133147
0.13307
0.132993
0.132916
0.13284
0.132765
0.13269
0.132615
0.132541
0.132468
0.132394
0.132322
0.132249
0.132177
0.132106
0.132035
0.131964
0.131894
0.131824
0.131754
0.131685
0.131616
0.131547
0.131479
0.131411
0.131344
0.131277
0.13121
0.131144
0.131077
0.131012
0.130946
0.130881
0.130816
0.130751
0.130687
0.130623
0.130559
0.130495
0.130432
0.130369
0.130306
0.130243
0.130181
0.130119
0.130057
0.129996
0.129934
0.129873
0.129812
0.129752
0.129691
0.129631
0.129571
0.129511
0.129452
0.129392
0.129333
0.129274
0.129215
0.129157
0.129099
0.12904
0.128983
0.128925
0.128867
0.12881
0.128753
0.128696
0.12864
0.128583
0.128527
0.128471
0.128415
0.12836
0.128305
0.12825
0.128195
0.12814
0.128086
0.128032
0.127978
0.127925
0.127872
0.127819
0.127766
0.127714
0.127662
0.127611
0.127559
0.127508
0.127458
0.127408
0.127358
0.127308
0.127259
0.12721
0.127162
0.127114
0.127067
0.12702
0.126974
0.126928
0.126882
0.126838
0.126793
0.126749
0.126706
0.126664
0.126622
0.12658
0.12654
0.1265
0.12646
0.126422
0.126384
0.126347
0.126311
0.126275
0.126241
0.126207
0.126174
0.126142
0.126111
0.126081
0.126052
0.126024
0.125997
0.125971
0.125947
0.125923
0.1259
0.125879
0.125859
0.12584
0.125822
0.125806
0.125791
0.125777
0.125765
0.125753
0.125743
0.125735
0.125727
0.125721
0.125716
0.125716
0.1
0.0999935
0.0999968
0.100009
0.100031
0.10006
0.100096
0.100138
0.100185
0.100237
0.100292
0.100351
0.100412
0.100475
0.10054
0.100607
0.100675
0.100746
0.10082
0.100896
0.100976
0.101059
0.101147
0.101239
0.101337
0.101441
0.10155
0.101667
0.10179
0.101921
0.102059
0.102205
0.102358
0.102519
0.102688
0.102865
0.10305
0.103243
0.103444
0.103652
0.103869
0.104093
0.104325
0.104566
0.104814
0.105071
0.105336
0.10561
0.105892
0.106183
0.106483
0.106793
0.107112
0.10744
0.107778
0.108127
0.108485
0.108854
0.109232
0.109621
0.110021
0.11043
0.11085
0.111281
0.111721
0.112171
0.112631
0.113101
0.11358
0.114067
0.114564
0.115069
0.115583
0.116104
0.116632
0.117168
0.117709
0.118257
0.118811
0.119369
0.119932
0.120498
0.121068
0.121641
0.122216
0.122793
0.12337
0.123948
0.124525
0.125101
0.125675
0.126247
0.126816
0.127381
0.127942
0.128498
0.129048
0.129591
0.130128
0.130656
0.131177
0.131689
0.132192
0.132685
0.133168
0.13364
0.134101
0.134551
0.134988
0.135414
0.135827
0.136228
0.136616
0.136991
0.137352
0.137701
0.138036
0.138358
0.138667
0.138962
0.139244
0.139513
0.139769
0.140012
0.140242
0.14046
0.140665
0.140858
0.141039
0.141208
0.141366
0.141512
0.141647
0.141772
0.141885
0.141989
0.142083
0.142167
0.142242
0.142307
0.142364
0.142412
0.142452
0.142484
0.142508
0.142525
0.142534
0.142537
0.142533
0.142523
0.142506
0.142484
0.142456
0.142423
0.142385
0.142342
0.142294
0.142242
0.142186
0.142126
0.142062
0.141994
0.141923
0.141849
0.141772
0.141692
0.141609
0.141524
0.141436
0.141346
0.141255
0.141161
0.141066
0.140969
0.14087
0.14077
0.140669
0.140567
0.140463
0.140359
0.140253
0.140147
0.140041
0.139933
0.139825
0.139717
0.139608
0.139499
0.13939
0.13928
0.139171
0.139061
0.138951
0.138842
0.138732
0.138622
0.138513
0.138404
0.138295
0.138186
0.138078
0.13797
0.137862
0.137755
0.137648
0.137541
0.137435
0.13733
0.137225
0.13712
0.137016
0.136913
0.13681
0.136708
0.136606
0.136505
0.136405
0.136305
0.136206
0.136107
0.136009
0.135912
0.135815
0.135719
0.135623
0.135529
0.135434
0.135341
0.135248
0.135156
0.135064
0.134973
0.134883
0.134793
0.134704
0.134616
0.134528
0.134441
0.134354
0.134268
0.134182
0.134098
0.134013
0.13393
0.133847
0.133764
0.133682
0.133601
0.13352
0.13344
0.13336
0.133281
0.133202
0.133124
0.133046
0.132969
0.132892
0.132816
0.13274
0.132665
0.13259
0.132516
0.132442
0.132368
0.132295
0.132222
0.13215
0.132078
0.132007
0.131936
0.131865
0.131795
0.131725
0.131656
0.131587
0.131518
0.131449
0.131381
0.131314
0.131246
0.131179
0.131113
0.131046
0.13098
0.130914
0.130849
0.130783
0.130719
0.130654
0.13059
0.130526
0.130462
0.130398
0.130335
0.130272
0.130209
0.130147
0.130084
0.130022
0.129961
0.129899
0.129838
0.129777
0.129716
0.129655
0.129595
0.129534
0.129474
0.129415
0.129355
0.129296
0.129237
0.129178
0.129119
0.129061
0.129002
0.128944
0.128886
0.128829
0.128771
0.128714
0.128657
0.1286
0.128544
0.128487
0.128431
0.128375
0.12832
0.128264
0.128209
0.128154
0.1281
0.128045
0.127991
0.127937
0.127884
0.12783
0.127777
0.127725
0.127672
0.12762
0.127569
0.127517
0.127466
0.127415
0.127365
0.127315
0.127265
0.127216
0.127167
0.127119
0.127071
0.127024
0.126977
0.12693
0.126884
0.126839
0.126794
0.126749
0.126705
0.126662
0.126619
0.126577
0.126536
0.126495
0.126455
0.126416
0.126377
0.126339
0.126302
0.126265
0.12623
0.126195
0.126161
0.126128
0.126096
0.126065
0.126035
0.126006
0.125978
0.125951
0.125925
0.1259
0.125877
0.125854
0.125833
0.125812
0.125793
0.125776
0.125759
0.125744
0.12573
0.125717
0.125706
0.125696
0.125688
0.12568
0.125674
0.125669
0.125669
0.1
0.0999935
0.0999968
0.100009
0.100031
0.10006
0.100096
0.100138
0.100185
0.100236
0.100291
0.10035
0.10041
0.100473
0.100538
0.100605
0.100673
0.100744
0.100817
0.100894
0.100973
0.101056
0.101144
0.101236
0.101333
0.101437
0.101546
0.101662
0.101785
0.101916
0.102053
0.102199
0.102352
0.102513
0.102682
0.102858
0.103043
0.103235
0.103436
0.103644
0.10386
0.104084
0.104316
0.104556
0.104804
0.105061
0.105326
0.105599
0.105881
0.106172
0.106472
0.106782
0.1071
0.107429
0.107767
0.108116
0.108474
0.108843
0.109222
0.109611
0.110011
0.110421
0.110841
0.111272
0.111712
0.112163
0.112624
0.113094
0.113574
0.114062
0.11456
0.115066
0.11558
0.116103
0.116632
0.117169
0.117712
0.118261
0.118815
0.119375
0.119939
0.120507
0.121079
0.121653
0.12223
0.122808
0.123387
0.123966
0.124545
0.125122
0.125698
0.126272
0.126842
0.127409
0.127971
0.128528
0.129079
0.129624
0.130162
0.130692
0.131214
0.131727
0.13223
0.132724
0.133208
0.133681
0.134142
0.134592
0.135031
0.135457
0.13587
0.136271
0.136659
0.137034
0.137396
0.137744
0.138079
0.138401
0.13871
0.139005
0.139286
0.139555
0.13981
0.140053
0.140283
0.1405
0.140704
0.140897
0.141077
0.141245
0.141402
0.141548
0.141682
0.141806
0.141919
0.142022
0.142115
0.142198
0.142272
0.142337
0.142393
0.14244
0.142479
0.14251
0.142533
0.142549
0.142558
0.14256
0.142555
0.142544
0.142527
0.142504
0.142476
0.142442
0.142403
0.142359
0.142311
0.142258
0.142201
0.14214
0.142075
0.142007
0.141935
0.141861
0.141783
0.141702
0.141619
0.141533
0.141445
0.141354
0.141262
0.141168
0.141072
0.140974
0.140875
0.140774
0.140672
0.140569
0.140465
0.14036
0.140254
0.140148
0.14004
0.139933
0.139824
0.139715
0.139606
0.139496
0.139386
0.139276
0.139166
0.139056
0.138945
0.138835
0.138725
0.138615
0.138505
0.138395
0.138285
0.138176
0.138067
0.137958
0.13785
0.137742
0.137635
0.137528
0.137421
0.137315
0.13721
0.137105
0.137
0.136896
0.136793
0.13669
0.136588
0.136486
0.136385
0.136285
0.136185
0.136086
0.135987
0.135889
0.135792
0.135695
0.135599
0.135504
0.135409
0.135315
0.135222
0.135129
0.135037
0.134945
0.134854
0.134764
0.134674
0.134585
0.134497
0.134409
0.134322
0.134236
0.13415
0.134064
0.13398
0.133895
0.133812
0.133729
0.133646
0.133564
0.133483
0.133402
0.133322
0.133242
0.133163
0.133084
0.133006
0.132928
0.132851
0.132774
0.132698
0.132622
0.132547
0.132472
0.132398
0.132324
0.13225
0.132177
0.132105
0.132032
0.131961
0.131889
0.131818
0.131747
0.131677
0.131607
0.131538
0.131468
0.1314
0.131331
0.131263
0.131195
0.131128
0.131061
0.130994
0.130927
0.130861
0.130795
0.13073
0.130664
0.130599
0.130534
0.13047
0.130406
0.130342
0.130278
0.130215
0.130152
0.130089
0.130026
0.129964
0.129902
0.12984
0.129778
0.129717
0.129656
0.129595
0.129534
0.129473
0.129413
0.129353
0.129293
0.129234
0.129174
0.129115
0.129056
0.128997
0.128939
0.12888
0.128822
0.128764
0.128706
0.128649
0.128592
0.128535
0.128478
0.128421
0.128365
0.128309
0.128253
0.128197
0.128142
0.128087
0.128032
0.127977
0.127923
0.127869
0.127815
0.127761
0.127708
0.127655
0.127603
0.12755
0.127498
0.127447
0.127395
0.127344
0.127294
0.127244
0.127194
0.127145
0.127096
0.127047
0.126999
0.126951
0.126904
0.126857
0.126811
0.126765
0.12672
0.126676
0.126632
0.126588
0.126545
0.126503
0.126461
0.12642
0.12638
0.126341
0.126302
0.126264
0.126226
0.12619
0.126154
0.126119
0.126085
0.126052
0.12602
0.125989
0.125959
0.125929
0.125901
0.125874
0.125848
0.125823
0.125799
0.125776
0.125755
0.125734
0.125715
0.125698
0.125681
0.125666
0.125652
0.125639
0.125628
0.125618
0.125609
0.125602
0.125595
0.12559
0.12559
0.1
0.0999935
0.0999969
0.100009
0.100031
0.100059
0.100095
0.100137
0.100184
0.100235
0.10029
0.100348
0.100408
0.100471
0.100535
0.100602
0.10067
0.100741
0.100814
0.10089
0.100969
0.101052
0.101139
0.101231
0.101328
0.101431
0.10154
0.101656
0.101778
0.101908
0.102046
0.102191
0.102343
0.102504
0.102672
0.102849
0.103033
0.103225
0.103425
0.103632
0.103848
0.104072
0.104303
0.104543
0.104791
0.105047
0.105311
0.105584
0.105866
0.106157
0.106457
0.106766
0.107085
0.107413
0.107752
0.1081
0.108458
0.108827
0.109207
0.109596
0.109996
0.110407
0.110828
0.111259
0.1117
0.112152
0.112613
0.113084
0.113565
0.114055
0.114554
0.115061
0.115577
0.116101
0.116632
0.11717
0.117715
0.118265
0.118822
0.119384
0.11995
0.12052
0.121094
0.12167
0.122249
0.122829
0.12341
0.123992
0.124573
0.125152
0.125731
0.126306
0.126879
0.127447
0.128012
0.12857
0.129124
0.12967
0.13021
0.130741
0.131265
0.131779
0.132284
0.132779
0.133264
0.133738
0.1342
0.134651
0.13509
0.135517
0.135931
0.136332
0.13672
0.137095
0.137457
0.137805
0.13814
0.138462
0.13877
0.139064
0.139346
0.139614
0.139868
0.14011
0.140339
0.140555
0.140759
0.140951
0.14113
0.141297
0.141453
0.141598
0.141731
0.141854
0.141966
0.142068
0.14216
0.142242
0.142314
0.142378
0.142433
0.142479
0.142517
0.142547
0.142569
0.142584
0.142592
0.142593
0.142587
0.142575
0.142557
0.142533
0.142503
0.142468
0.142428
0.142383
0.142334
0.14228
0.142222
0.14216
0.142094
0.142025
0.141952
0.141877
0.141798
0.141716
0.141632
0.141545
0.141456
0.141365
0.141271
0.141176
0.141079
0.140981
0.140881
0.140779
0.140677
0.140573
0.140468
0.140362
0.140255
0.140148
0.14004
0.139931
0.139822
0.139712
0.139602
0.139491
0.13938
0.13927
0.139158
0.139047
0.138936
0.138825
0.138714
0.138603
0.138492
0.138382
0.138271
0.138161
0.138052
0.137942
0.137833
0.137724
0.137616
0.137508
0.137401
0.137294
0.137188
0.137082
0.136976
0.136872
0.136768
0.136664
0.136561
0.136459
0.136357
0.136255
0.136155
0.136055
0.135956
0.135857
0.135759
0.135661
0.135565
0.135469
0.135373
0.135278
0.135184
0.135091
0.134998
0.134905
0.134814
0.134723
0.134632
0.134543
0.134453
0.134365
0.134277
0.13419
0.134103
0.134017
0.133932
0.133847
0.133762
0.133679
0.133595
0.133513
0.133431
0.133349
0.133268
0.133188
0.133108
0.133028
0.13295
0.132871
0.132793
0.132716
0.132639
0.132563
0.132487
0.132411
0.132336
0.132261
0.132187
0.132114
0.13204
0.131967
0.131895
0.131823
0.131751
0.13168
0.131609
0.131538
0.131468
0.131399
0.131329
0.13126
0.131191
0.131123
0.131055
0.130987
0.13092
0.130853
0.130786
0.13072
0.130653
0.130588
0.130522
0.130457
0.130392
0.130327
0.130263
0.130199
0.130135
0.130071
0.130008
0.129945
0.129882
0.129819
0.129757
0.129695
0.129633
0.129571
0.12951
0.129449
0.129388
0.129327
0.129266
0.129206
0.129146
0.129086
0.129027
0.128967
0.128908
0.128849
0.12879
0.128732
0.128673
0.128615
0.128557
0.1285
0.128442
0.128385
0.128328
0.128271
0.128215
0.128159
0.128103
0.128047
0.127992
0.127936
0.127881
0.127827
0.127772
0.127718
0.127664
0.127611
0.127558
0.127505
0.127452
0.1274
0.127348
0.127296
0.127245
0.127194
0.127144
0.127094
0.127044
0.126995
0.126946
0.126898
0.12685
0.126802
0.126755
0.126709
0.126663
0.126617
0.126572
0.126528
0.126484
0.126441
0.126399
0.126357
0.126316
0.126275
0.126236
0.126197
0.126158
0.126121
0.126084
0.126048
0.126013
0.125979
0.125945
0.125913
0.125882
0.125851
0.125822
0.125793
0.125766
0.12574
0.125714
0.12569
0.125667
0.125646
0.125625
0.125606
0.125588
0.125571
0.125556
0.125542
0.125529
0.125518
0.125508
0.125499
0.125491
0.125485
0.12548
0.12548
0.1
0.0999936
0.0999969
0.100009
0.10003
0.100059
0.100095
0.100136
0.100183
0.100234
0.100288
0.100346
0.100406
0.100468
0.100532
0.100598
0.100666
0.100736
0.100809
0.100885
0.100963
0.101046
0.101132
0.101224
0.101321
0.101423
0.101532
0.101647
0.10177
0.101899
0.102036
0.10218
0.102333
0.102492
0.10266
0.102836
0.103019
0.103211
0.10341
0.103617
0.103832
0.104056
0.104287
0.104526
0.104773
0.105029
0.105293
0.105565
0.105847
0.106137
0.106437
0.106746
0.107065
0.107393
0.107731
0.10808
0.108438
0.108807
0.109187
0.109577
0.109978
0.110389
0.11081
0.111242
0.111685
0.112137
0.1126
0.113072
0.113554
0.114046
0.114546
0.115055
0.115573
0.116098
0.116631
0.117171
0.117718
0.118271
0.11883
0.119395
0.119963
0.120536
0.121112
0.121692
0.122273
0.122856
0.12344
0.124024
0.124608
0.125191
0.125772
0.12635
0.126926
0.127497
0.128064
0.128625
0.129181
0.12973
0.130271
0.130805
0.13133
0.131847
0.132353
0.13285
0.133336
0.133811
0.134275
0.134727
0.135166
0.135594
0.136008
0.13641
0.136798
0.137174
0.137535
0.137884
0.138218
0.138539
0.138847
0.139141
0.139422
0.139689
0.139943
0.140184
0.140412
0.140627
0.14083
0.14102
0.141198
0.141364
0.141519
0.141662
0.141794
0.141915
0.142026
0.142127
0.142217
0.142298
0.142369
0.142431
0.142484
0.142529
0.142566
0.142594
0.142615
0.142628
0.142635
0.142634
0.142627
0.142613
0.142594
0.142568
0.142537
0.142501
0.14246
0.142414
0.142363
0.142308
0.142248
0.142185
0.142118
0.142048
0.141974
0.141897
0.141817
0.141734
0.141648
0.14156
0.14147
0.141378
0.141283
0.141187
0.141089
0.140989
0.140888
0.140785
0.140681
0.140576
0.14047
0.140363
0.140256
0.140147
0.140038
0.139928
0.139817
0.139707
0.139595
0.139484
0.139372
0.13926
0.139148
0.139036
0.138923
0.138811
0.138699
0.138587
0.138475
0.138364
0.138252
0.138141
0.13803
0.13792
0.13781
0.1377
0.137591
0.137482
0.137374
0.137266
0.137158
0.137051
0.136945
0.136839
0.136734
0.136629
0.136525
0.136422
0.136319
0.136217
0.136115
0.136014
0.135914
0.135814
0.135715
0.135617
0.135519
0.135422
0.135325
0.13523
0.135134
0.13504
0.134946
0.134853
0.13476
0.134668
0.134577
0.134486
0.134396
0.134307
0.134218
0.13413
0.134042
0.133955
0.133869
0.133783
0.133697
0.133613
0.133529
0.133445
0.133362
0.13328
0.133198
0.133117
0.133036
0.132956
0.132876
0.132797
0.132718
0.13264
0.132562
0.132485
0.132408
0.132331
0.132255
0.13218
0.132105
0.132031
0.131956
0.131883
0.131809
0.131737
0.131664
0.131592
0.13152
0.131449
0.131378
0.131308
0.131238
0.131168
0.131098
0.131029
0.13096
0.130892
0.130824
0.130756
0.130689
0.130622
0.130555
0.130488
0.130422
0.130356
0.130291
0.130225
0.13016
0.130095
0.130031
0.129967
0.129903
0.129839
0.129775
0.129712
0.129649
0.129587
0.129524
0.129462
0.1294
0.129338
0.129277
0.129215
0.129154
0.129093
0.129033
0.128972
0.128912
0.128852
0.128793
0.128733
0.128674
0.128615
0.128556
0.128497
0.128439
0.128381
0.128323
0.128265
0.128208
0.128151
0.128094
0.128037
0.127981
0.127925
0.127869
0.127813
0.127758
0.127703
0.127648
0.127593
0.127539
0.127485
0.127431
0.127378
0.127325
0.127273
0.12722
0.127168
0.127117
0.127066
0.127015
0.126964
0.126914
0.126865
0.126816
0.126767
0.126719
0.126671
0.126623
0.126577
0.12653
0.126485
0.12644
0.126395
0.126351
0.126307
0.126265
0.126223
0.126181
0.12614
0.1261
0.126061
0.126022
0.125984
0.125947
0.125911
0.125876
0.125841
0.125808
0.125775
0.125743
0.125713
0.125683
0.125654
0.125627
0.1256
0.125575
0.12555
0.125527
0.125505
0.125485
0.125465
0.125447
0.12543
0.125415
0.1254
0.125388
0.125376
0.125366
0.125357
0.125349
0.125343
0.125338
0.125338
0.1
0.0999937
0.099997
0.100009
0.10003
0.100059
0.100094
0.100135
0.100182
0.100232
0.100286
0.100343
0.100403
0.100465
0.100528
0.100594
0.100662
0.100731
0.100803
0.100878
0.100957
0.101039
0.101125
0.101216
0.101312
0.101414
0.101522
0.101637
0.101759
0.101888
0.102024
0.102168
0.102319
0.102478
0.102646
0.10282
0.103003
0.103194
0.103393
0.103599
0.103813
0.104036
0.104266
0.104505
0.104751
0.105006
0.10527
0.105542
0.105823
0.106113
0.106412
0.106721
0.10704
0.107368
0.107706
0.108055
0.108414
0.108783
0.109163
0.109553
0.109955
0.110366
0.110789
0.111222
0.111665
0.112119
0.112583
0.113057
0.11354
0.114034
0.114536
0.115047
0.115567
0.116095
0.11663
0.117173
0.117723
0.118279
0.11884
0.119408
0.11998
0.120556
0.121135
0.121718
0.122303
0.122889
0.123477
0.124065
0.124652
0.125238
0.125823
0.126404
0.126983
0.127558
0.128128
0.128692
0.129251
0.129802
0.130347
0.130883
0.131411
0.131929
0.132438
0.132937
0.133425
0.133901
0.134366
0.134819
0.13526
0.135688
0.136103
0.136506
0.136894
0.13727
0.137631
0.13798
0.138314
0.138635
0.138942
0.139235
0.139515
0.139781
0.140034
0.140274
0.140501
0.140715
0.140916
0.141105
0.141281
0.141446
0.141599
0.141741
0.141871
0.141991
0.142099
0.142198
0.142287
0.142366
0.142435
0.142495
0.142547
0.14259
0.142625
0.142651
0.14267
0.142682
0.142686
0.142684
0.142675
0.14266
0.142639
0.142611
0.142579
0.142541
0.142498
0.14245
0.142398
0.142341
0.14228
0.142215
0.142146
0.142074
0.141999
0.14192
0.141839
0.141754
0.141667
0.141578
0.141486
0.141392
0.141296
0.141198
0.141099
0.140998
0.140895
0.140791
0.140686
0.14058
0.140472
0.140364
0.140255
0.140145
0.140034
0.139923
0.139811
0.139699
0.139586
0.139473
0.13936
0.139247
0.139133
0.13902
0.138906
0.138793
0.138679
0.138566
0.138453
0.13834
0.138227
0.138115
0.138003
0.137891
0.13778
0.137669
0.137558
0.137448
0.137338
0.137229
0.13712
0.137012
0.136905
0.136798
0.136691
0.136585
0.13648
0.136375
0.136271
0.136168
0.136065
0.135963
0.135861
0.13576
0.13566
0.13556
0.135461
0.135363
0.135265
0.135168
0.135072
0.134976
0.134881
0.134787
0.134693
0.1346
0.134507
0.134415
0.134324
0.134234
0.134144
0.134054
0.133965
0.133877
0.13379
0.133703
0.133616
0.133531
0.133445
0.133361
0.133277
0.133193
0.13311
0.133028
0.132946
0.132865
0.132784
0.132704
0.132624
0.132545
0.132466
0.132387
0.13231
0.132232
0.132155
0.132079
0.132003
0.131927
0.131852
0.131778
0.131703
0.13163
0.131556
0.131483
0.131411
0.131338
0.131267
0.131195
0.131124
0.131053
0.130983
0.130913
0.130844
0.130774
0.130705
0.130637
0.130568
0.1305
0.130433
0.130366
0.130298
0.130232
0.130165
0.130099
0.130033
0.129968
0.129903
0.129838
0.129773
0.129708
0.129644
0.12958
0.129517
0.129453
0.12939
0.129327
0.129264
0.129202
0.12914
0.129078
0.129016
0.128954
0.128893
0.128832
0.128771
0.128711
0.128651
0.12859
0.128531
0.128471
0.128412
0.128352
0.128293
0.128235
0.128176
0.128118
0.12806
0.128002
0.127945
0.127888
0.127831
0.127774
0.127718
0.127662
0.127606
0.12755
0.127495
0.12744
0.127385
0.127331
0.127277
0.127223
0.127169
0.127116
0.127064
0.127011
0.126959
0.126908
0.126856
0.126806
0.126755
0.126705
0.126656
0.126606
0.126558
0.12651
0.126462
0.126415
0.126368
0.126322
0.126276
0.126232
0.126187
0.126143
0.1261
0.126058
0.126016
0.125975
0.125934
0.125895
0.125856
0.125818
0.12578
0.125744
0.125708
0.125673
0.125639
0.125606
0.125574
0.125543
0.125513
0.125484
0.125456
0.125429
0.125404
0.125379
0.125356
0.125334
0.125313
0.125293
0.125275
0.125258
0.125242
0.125227
0.125214
0.125203
0.125192
0.125183
0.125176
0.125169
0.125164
0.125164
0.1
0.0999937
0.099997
0.100009
0.10003
0.100058
0.100093
0.100134
0.10018
0.10023
0.100284
0.10034
0.1004
0.100461
0.100524
0.100589
0.100656
0.100725
0.100797
0.100871
0.100949
0.10103
0.101116
0.101206
0.101302
0.101403
0.101511
0.101625
0.101746
0.101874
0.10201
0.102153
0.102303
0.102462
0.102628
0.102802
0.102984
0.103174
0.103372
0.103577
0.103791
0.104012
0.104242
0.104479
0.104725
0.10498
0.105243
0.105514
0.105795
0.106084
0.106383
0.106692
0.10701
0.107338
0.107676
0.108025
0.108384
0.108754
0.109134
0.109525
0.109927
0.11034
0.110763
0.111197
0.111642
0.112097
0.112563
0.113038
0.113524
0.114019
0.114524
0.115037
0.115559
0.11609
0.116629
0.117174
0.117727
0.118287
0.118852
0.119423
0.119999
0.120579
0.121162
0.121749
0.122338
0.122928
0.12352
0.124112
0.124704
0.125294
0.125882
0.126468
0.127051
0.12763
0.128203
0.128771
0.129333
0.129889
0.130436
0.130976
0.131506
0.132028
0.132539
0.13304
0.13353
0.134008
0.134475
0.134929
0.135371
0.1358
0.136216
0.136619
0.137008
0.137383
0.137745
0.138093
0.138427
0.138747
0.139054
0.139346
0.139625
0.13989
0.140142
0.14038
0.140606
0.140818
0.141017
0.141205
0.141379
0.141542
0.141693
0.141833
0.141961
0.142079
0.142186
0.142282
0.142369
0.142446
0.142513
0.142571
0.14262
0.142661
0.142694
0.142718
0.142735
0.142745
0.142747
0.142743
0.142731
0.142714
0.142691
0.142662
0.142627
0.142587
0.142542
0.142492
0.142438