# vtk DataFile Version 3.0
LBM Fluid Grid
ASCII
DATASET STRUCTURED_POINTS
DIMENSIONS 400 150 1
ORIGIN 0 0 0
SPACING 1 1 1
POINT_DATA 60000
SCALARS VelocityMagnitude double 1
LOOKUP_TABLE default
0.1
0.100002
0.100008
0.100019
0.100033
0.100052
0.100075
0.100102
0.100133
0.100169
0.100209
0.100254
0.100303
0.100356
0.100414
0.100477
0.100544
0.100617
0.100694
0.100776
0.100863
0.100956
0.101053
0.101157
0.101265
0.10138
0.1015
0.101626
0.101758
0.101896
0.102041
0.102192
0.102349
0.102514
0.102685
0.102863
0.103049
0.103242
0.103442
0.10365
0.103866
0.10409
0.104323
0.104563
0.104813
0.10507
0.105337
0.105613
0.105898
0.106192
0.106495
0.106808
0.10713
0.107462
0.107804
0.108156
0.108518
0.10889
0.109271
0.109663
0.110065
0.110476
0.110898
0.111329
0.11177
0.112221
0.112681
0.11315
0.113629
0.114116
0.114612
0.115116
0.115629
0.116149
0.116676
0.11721
0.117751
0.118298
0.11885
0.119408
0.11997
0.120536
0.121105
0.121677
0.122251
0.122827
0.123404
0.123981
0.124558
0.125133
0.125707
0.126278
0.126847
0.127411
0.127971
0.128526
0.129075
0.129618
0.130153
0.130681
0.131201
0.131712
0.132214
0.132707
0.133189
0.13366
0.13412
0.134569
0.135007
0.135432
0.135845
0.136245
0.136633
0.137008
0.13737
0.137719
0.138054
0.138377
0.138686
0.138982
0.139265
0.139534
0.139791
0.140035
0.140266
0.140484
0.140691
0.140884
0.141066
0.141236
0.141395
0.141542
0.141678
0.141803
0.141918
0.142023
0.142117
0.142202
0.142277
0.142343
0.142401
0.14245
0.14249
0.142523
0.142547
0.142565
0.142575
0.142578
0.142575
0.142565
0.142549
0.142528
0.1425
0.142468
0.14243
0.142388
0.142341
0.142289
0.142233
0.142174
0.14211
0.142043
0.141973
0.141899
0.141822
0.141743
0.141661
0.141576
0.141489
0.1414
0.141308
0.141215
0.14112
0.141024
0.140925
0.140826
0.140725
0.140623
0.14052
0.140416
0.140311
0.140206
0.140099
0.139993
0.139885
0.139777
0.139669
0.139561
0.139452
0.139343
0.139234
0.139125
0.139016
0.138906
0.138797
0.138689
0.13858
0.138471
0.138363
0.138255
0.138148
0.138041
0.137934
0.137827
0.137721
0.137616
0.13751
0.137406
0.137302
0.137198
0.137095
0.136993
0.136891
0.136789
0.136688
0.136588
0.136489
0.13639
0.136291
0.136193
0.136096
0.136
0.135904
0.135809
0.135714
0.13562
0.135526
0.135434
0.135341
0.13525
0.135159
0.135069
0.134979
0.13489
0.134801
0.134713
0.134626
0.134539
0.134453
0.134367
0.134282
0.134198
0.134114
0.134031
0.133948
0.133866
0.133784
0.133703
0.133622
0.133542
0.133462
0.133383
0.133304
0.133226
0.133149
0.133071
0.132995
0.132918
0.132842
0.132767
0.132692
0.132618
0.132543
0.13247
0.132396
0.132324
0.132251
0.132179
0.132107
0.132036
0.131965
0.131894
0.131824
0.131754
0.131685
0.131616
0.131547
0.131478
0.13141
0.131342
0.131275
0.131208
0.131141
0.131074
0.131008
0.130942
0.130876
0.130811
0.130746
0.130681
0.130616
0.130552
0.130488
0.130424
0.130361
0.130298
0.130235
0.130172
0.13011
0.130048
0.129986
0.129924
0.129863
0.129802
0.129741
0.12968
0.12962
0.129559
0.129499
0.12944
0.12938
0.129321
0.129262
0.129204
0.129145
0.129087
0.129029
0.128971
0.128914
0.128856
0.1288
0.128743
0.128686
0.12863
0.128574
0.128519
0.128463
0.128408
0.128353
0.128299
0.128245
0.128191
0.128137
0.128084
0.12803
0.127978
0.127925
0.127873
0.127822
0.12777
0.127719
0.127668
0.127618
0.127568
0.127519
0.127469
0.127421
0.127372
0.127324
0.127277
0.12723
0.127184
0.127138
0.127092
0.127047
0.127002
0.126958
0.126915
0.126872
0.12683
0.126788
0.126747
0.126707
0.126667
0.126628
0.12659
0.126552
0.126516
0.12648
0.126444
0.12641
0.126376
0.126343
0.126312
0.126281
0.12625
0.126221
0.126193
0.126166
0.12614
0.126115
0.126091
0.126068
0.126046
0.126025
0.126006
0.125988
0.12597
0.125954
0.12594
0.125926
0.125914
0.125903
0.125893
0.125884
0.125877
0.125871
0.125866
0.125862
0.125862
0.1
0.100002
0.100008
0.100019
0.100033
0.100052
0.100075
0.100102
0.100133
0.100169
0.100209
0.100253
0.100302
0.100356
0.100414
0.100477
0.100544
0.100616
0.100693
0.100776
0.100863
0.100955
0.101053
0.101156
0.101265
0.101379
0.101499
0.101625
0.101757
0.101895
0.10204
0.102191
0.102348
0.102512
0.102684
0.102862
0.103047
0.10324
0.103441
0.103649
0.103865
0.104089
0.104321
0.104561
0.104811
0.105068
0.105335
0.105611
0.105895
0.106189
0.106493
0.106806
0.107128
0.10746
0.107802
0.108154
0.108516
0.108888
0.109269
0.109661
0.110063
0.110474
0.110896
0.111327
0.111768
0.112219
0.112679
0.113149
0.113628
0.114115
0.114611
0.115116
0.115628
0.116148
0.116676
0.117211
0.117752
0.118299
0.118851
0.119409
0.119971
0.120537
0.121107
0.121679
0.122254
0.12283
0.123407
0.123985
0.124562
0.125137
0.125712
0.126283
0.126852
0.127416
0.127977
0.128532
0.129081
0.129624
0.13016
0.130688
0.131208
0.13172
0.132222
0.132714
0.133196
0.133668
0.134129
0.134578
0.135015
0.13544
0.135854
0.136254
0.136642
0.137017
0.137379
0.137727
0.138063
0.138385
0.138695
0.13899
0.139273
0.139543
0.139799
0.140043
0.140274
0.140492
0.140698
0.140892
0.141074
0.141244
0.141402
0.141549
0.141685
0.14181
0.141925
0.142029
0.142124
0.142208
0.142283
0.142349
0.142407
0.142455
0.142496
0.142528
0.142552
0.14257
0.14258
0.142583
0.142579
0.142569
0.142554
0.142532
0.142504
0.142472
0.142434
0.142391
0.142344
0.142292
0.142236
0.142177
0.142113
0.142046
0.141975
0.141901
0.141825
0.141745
0.141663
0.141578
0.141491
0.141401
0.14131
0.141217
0.141121
0.141025
0.140927
0.140827
0.140726
0.140624
0.140521
0.140417
0.140312
0.140206
0.1401
0.139993
0.139885
0.139777
0.139669
0.13956
0.139451
0.139342
0.139233
0.139124
0.139014
0.138905
0.138796
0.138687
0.138578
0.13847
0.138362
0.138253
0.138146
0.138038
0.137931
0.137825
0.137719
0.137613
0.137508
0.137403
0.137299
0.137195
0.137092
0.136989
0.136887
0.136786
0.136685
0.136585
0.136485
0.136386
0.136287
0.136189
0.136092
0.135995
0.135899
0.135804
0.135709
0.135615
0.135521
0.135429
0.135336
0.135245
0.135154
0.135063
0.134973
0.134884
0.134795
0.134707
0.13462
0.134533
0.134447
0.134361
0.134276
0.134191
0.134107
0.134024
0.133941
0.133859
0.133777
0.133696
0.133615
0.133535
0.133455
0.133376
0.133297
0.133219
0.133141
0.133063
0.132987
0.13291
0.132834
0.132759
0.132684
0.132609
0.132535
0.132461
0.132388
0.132315
0.132242
0.13217
0.132098
0.132027
0.131956
0.131885
0.131815
0.131745
0.131675
0.131606
0.131537
0.131468
0.1314
0.131332
0.131265
0.131197
0.13113
0.131064
0.130997
0.130931
0.130866
0.1308
0.130735
0.13067
0.130605
0.130541
0.130477
0.130413
0.13035
0.130286
0.130223
0.130161
0.130098
0.130036
0.129974
0.129912
0.129851
0.12979
0.129729
0.129668
0.129607
0.129547
0.129487
0.129427
0.129368
0.129309
0.12925
0.129191
0.129132
0.129074
0.129016
0.128958
0.128901
0.128844
0.128787
0.12873
0.128673
0.128617
0.128561
0.128505
0.12845
0.128395
0.12834
0.128285
0.128231
0.128177
0.128123
0.12807
0.128017
0.127964
0.127912
0.127859
0.127808
0.127756
0.127705
0.127654
0.127604
0.127554
0.127504
0.127455
0.127406
0.127358
0.12731
0.127263
0.127216
0.127169
0.127123
0.127077
0.127032
0.126988
0.126944
0.1269
0.126858
0.126815
0.126774
0.126733
0.126692
0.126653
0.126613
0.126575
0.126538
0.126501
0.126465
0.126429
0.126395
0.126361
0.126328
0.126296
0.126265
0.126235
0.126206
0.126178
0.126151
0.126125
0.126099
0.126075
0.126052
0.126031
0.12601
0.12599
0.125972
0.125955
0.125939
0.125924
0.12591
0.125898
0.125887
0.125877
0.125869
0.125861
0.125855
0.12585
0.125846
0.125846
0.1
0.100002
0.100008
0.100018
0.100033
0.100052
0.100074
0.100102
0.100133
0.100169
0.100209
0.100253
0.100302
0.100355
0.100413
0.100476
0.100543
0.100615
0.100692
0.100774
0.100861
0.100954
0.101051
0.101154
0.101263
0.101377
0.101497
0.101622
0.101754
0.101892
0.102037
0.102187
0.102345
0.102509
0.10268
0.102858
0.103043
0.103236
0.103436
0.103644
0.10386
0.104083
0.104315
0.104556
0.104805
0.105062
0.105329
0.105604
0.105889
0.106183
0.106486
0.106799
0.107121
0.107454
0.107796
0.108147
0.108509
0.108881
0.109263
0.109655
0.110056
0.110468
0.11089
0.111322
0.111763
0.112214
0.112675
0.113145
0.113624
0.114112
0.114608
0.115114
0.115627
0.116148
0.116676
0.117211
0.117753
0.118301
0.118854
0.119412
0.119976
0.120543
0.121113
0.121686
0.122262
0.122839
0.123417
0.123995
0.124573
0.12515
0.125725
0.126298
0.126867
0.127433
0.127994
0.12855
0.1291
0.129644
0.13018
0.130709
0.13123
0.131742
0.132245
0.132738
0.13322
0.133692
0.134153
0.134603
0.13504
0.135466
0.135879
0.13628
0.136668
0.137043
0.137405
0.137753
0.138089
0.138411
0.13872
0.139016
0.139298
0.139568
0.139824
0.140068
0.140298
0.140516
0.140722
0.140915
0.141097
0.141266
0.141424
0.141571
0.141706
0.141831
0.141945
0.142049
0.142143
0.142227
0.142302
0.142367
0.142424
0.142472
0.142512
0.142544
0.142568
0.142585
0.142594
0.142597
0.142593
0.142583
0.142566
0.142544
0.142516
0.142483
0.142445
0.142402
0.142354
0.142302
0.142246
0.142185
0.142121
0.142054
0.141983
0.141909
0.141831
0.141751
0.141669
0.141583
0.141496
0.141406
0.141314
0.141221
0.141125
0.141028
0.14093
0.14083
0.140728
0.140626
0.140522
0.140418
0.140313
0.140206
0.1401
0.139992
0.139884
0.139776
0.139667
0.139558
0.139449
0.13934
0.13923
0.139121
0.139011
0.138901
0.138792
0.138683
0.138574
0.138465
0.138356
0.138248
0.13814
0.138032
0.137925
0.137818
0.137711
0.137605
0.1375
0.137394
0.13729
0.137186
0.137082
0.136979
0.136877
0.136775
0.136674
0.136573
0.136473
0.136374
0.136275
0.136177
0.136079
0.135982
0.135886
0.13579
0.135695
0.1356
0.135507
0.135413
0.135321
0.135229
0.135137
0.135047
0.134956
0.134867
0.134778
0.13469
0.134602
0.134515
0.134428
0.134342
0.134257
0.134172
0.134087
0.134004
0.13392
0.133838
0.133756
0.133674
0.133593
0.133512
0.133432
0.133353
0.133274
0.133195
0.133117
0.133039
0.132962
0.132886
0.132809
0.132734
0.132658
0.132583
0.132509
0.132435
0.132361
0.132288
0.132215
0.132143
0.132071
0.131999
0.131928
0.131857
0.131786
0.131716
0.131646
0.131576
0.131507
0.131438
0.13137
0.131302
0.131234
0.131166
0.131099
0.131032
0.130966
0.130899
0.130833
0.130768
0.130702
0.130637
0.130572
0.130508
0.130444
0.13038
0.130316
0.130252
0.130189
0.130126
0.130063
0.130001
0.129939
0.129877
0.129815
0.129754
0.129693
0.129632
0.129571
0.129511
0.12945
0.129391
0.129331
0.129271
0.129212
0.129153
0.129095
0.129036
0.128978
0.12892
0.128862
0.128805
0.128748
0.128691
0.128634
0.128578
0.128522
0.128466
0.12841
0.128355
0.1283
0.128245
0.128191
0.128136
0.128083
0.128029
0.127976
0.127923
0.12787
0.127818
0.127766
0.127714
0.127663
0.127612
0.127562
0.127512
0.127462
0.127413
0.127364
0.127315
0.127267
0.12722
0.127173
0.127126
0.12708
0.127034
0.126989
0.126944
0.1269
0.126856
0.126814
0.126771
0.126729
0.126688
0.126648
0.126608
0.126569
0.12653
0.126493
0.126456
0.126419
0.126384
0.126349
0.126316
0.126283
0.126251
0.12622
0.126189
0.12616
0.126132
0.126105
0.126078
0.126053
0.126029
0.126006
0.125984
0.125963
0.125944
0.125925
0.125908
0.125892
0.125877
0.125863
0.125851
0.12584
0.12583
0.125821
0.125814
0.125808
0.125803
0.125798
0.125798
0.1
0.100002
0.100008
0.100018
0.100033
0.100051
0.100074
0.100101
0.100133
0.100168
0.100208
0.100252
0.100301
0.100354
0.100412
0.100474
0.100541
0.100613
0.10069
0.100772
0.100859
0.100951
0.101048
0.101151
0.101259
0.101373
0.101493
0.101618
0.10175
0.101887
0.102031
0.102182
0.102339
0.102502
0.102673
0.102851
0.103036
0.103228
0.103428
0.103636
0.103851
0.104075
0.104306
0.104546
0.104795
0.105053
0.105319
0.105594
0.105878
0.106172
0.106475
0.106788
0.10711
0.107442
0.107784
0.108136
0.108498
0.10887
0.109252
0.109644
0.110046
0.110458
0.11088
0.111312
0.111754
0.112206
0.112667
0.113138
0.113618
0.114106
0.114604
0.11511
0.115624
0.116146
0.116675
0.117212
0.117754
0.118304
0.118858
0.119418
0.119983
0.120551
0.121123
0.121698
0.122275
0.122854
0.123434
0.124013
0.124593
0.125171
0.125748
0.126322
0.126893
0.12746
0.128022
0.12858
0.129131
0.129676
0.130214
0.130744
0.131266
0.131779
0.132283
0.132777
0.13326
0.133733
0.134194
0.134644
0.135083
0.135509
0.135922
0.136323
0.136711
0.137086
0.137448
0.137797
0.138132
0.138454
0.138763
0.139059
0.139341
0.13961
0.139866
0.140109
0.140339
0.140556
0.140761
0.140954
0.141135
0.141303
0.141461
0.141607
0.141741
0.141865
0.141979
0.142082
0.142175
0.142258
0.142332
0.142397
0.142453
0.1425
0.142539
0.14257
0.142594
0.14261
0.142618
0.14262
0.142616
0.142605
0.142587
0.142564
0.142536
0.142502
0.142463
0.142419
0.142371
0.142318
0.142261
0.1422
0.142135
0.142067
0.141995
0.14192
0.141843
0.141762
0.141679
0.141593
0.141504
0.141414
0.141322
0.141227
0.141131
0.141034
0.140934
0.140834
0.140732
0.140629
0.140525
0.14042
0.140314
0.140207
0.1401
0.139992
0.139883
0.139774
0.139665
0.139555
0.139445
0.139336
0.139225
0.139115
0.139005
0.138895
0.138785
0.138675
0.138565
0.138456
0.138347
0.138238
0.138129
0.138021
0.137913
0.137805
0.137698
0.137592
0.137486
0.13738
0.137275
0.13717
0.137066
0.136963
0.13686
0.136757
0.136655
0.136554
0.136454
0.136354
0.136254
0.136155
0.136057
0.13596
0.135863
0.135767
0.135671
0.135576
0.135481
0.135388
0.135295
0.135202
0.13511
0.135019
0.134928
0.134838
0.134748
0.13466
0.134571
0.134484
0.134397
0.13431
0.134224
0.134139
0.134054
0.13397
0.133886
0.133803
0.13372
0.133638
0.133556
0.133475
0.133395
0.133315
0.133235
0.133156
0.133077
0.132999
0.132922
0.132845
0.132768
0.132692
0.132616
0.13254
0.132465
0.132391
0.132317
0.132243
0.13217
0.132097
0.132024
0.131952
0.13188
0.131809
0.131738
0.131667
0.131597
0.131527
0.131458
0.131388
0.131319
0.131251
0.131183
0.131115
0.131047
0.13098
0.130913
0.130846
0.13078
0.130714
0.130648
0.130582
0.130517
0.130452
0.130387
0.130323
0.130259
0.130195
0.130132
0.130068
0.130005
0.129942
0.12988
0.129818
0.129756
0.129694
0.129632
0.129571
0.12951
0.12945
0.129389
0.129329
0.129269
0.129209
0.12915
0.12909
0.129031
0.128973
0.128914
0.128856
0.128798
0.12874
0.128683
0.128626
0.128569
0.128512
0.128456
0.128399
0.128344
0.128288
0.128233
0.128178
0.128123
0.128069
0.128015
0.127961
0.127907
0.127854
0.127801
0.127749
0.127697
0.127645
0.127593
0.127542
0.127492
0.127441
0.127391
0.127342
0.127293
0.127244
0.127196
0.127148
0.127101
0.127054
0.127007
0.126961
0.126916
0.126871
0.126827
0.126783
0.12674
0.126697
0.126655
0.126614
0.126573
0.126533
0.126494
0.126455
0.126418
0.12638
0.126344
0.126308
0.126274
0.12624
0.126207
0.126174
0.126143
0.126113
0.126083
0.126055
0.126027
0.126001
0.125976
0.125951
0.125928
0.125906
0.125885
0.125865
0.125847
0.12583
0.125813
0.125798
0.125785
0.125772
0.125761
0.125751
0.125742
0.125735
0.125729
0.125724
0.125719
0.125719
0.1
0.100002
0.100008
0.100018
0.100033
0.100051
0.100074
0.100101
0.100132
0.100167
0.100207
0.100251
0.1003
0.100353
0.10041
0.100472
0.100539
0.100611
0.100687
0.100769
0.100855
0.100947
0.101044
0.101146
0.101254
0.101368
0.101487
0.101612
0.101743
0.10188
0.102024
0.102174
0.10233
0.102494
0.102664
0.102841
0.103026
0.103217
0.103417
0.103624
0.103839
0.104062
0.104293
0.104533
0.104782
0.105039
0.105304
0.105579
0.105864
0.106157
0.10646
0.106772
0.107095
0.107427
0.107769
0.10812
0.108482
0.108854
0.109237
0.109629
0.110031
0.110444
0.110867
0.111299
0.111742
0.112194
0.112656
0.113128
0.113609
0.114099
0.114597
0.115105
0.11562
0.116143
0.116674
0.117212
0.117757
0.118308
0.118864
0.119426
0.119993
0.120563
0.121137
0.121714
0.122294
0.122875
0.123456
0.124038
0.12462
0.125201
0.125779
0.126356
0.126929
0.127498
0.128062
0.128622
0.129175
0.129722
0.130261
0.130793
0.131317
0.131831
0.132336
0.132831
0.133316
0.133789
0.134252
0.134703
0.135142
0.135568
0.135982
0.136383
0.136772
0.137147
0.137509
0.137858
0.138193
0.138515
0.138823
0.139118
0.1394
0.139668
0.139924
0.140166
0.140395
0.140612
0.140816
0.141008
0.141188
0.141356
0.141512
0.141657
0.14179
0.141913
0.142026
0.142128
0.14222
0.142302
0.142375
0.142439
0.142493
0.14254
0.142578
0.142607
0.14263
0.142645
0.142652
0.142653
0.142647
0.142635
0.142617
0.142593
0.142563
0.142528
0.142488
0.142443
0.142394
0.14234
0.142282
0.14222
0.142155
0.142085
0.142013
0.141937
0.141858
0.141776
0.141692
0.141605
0.141516
0.141425
0.141331
0.141236
0.141139
0.141041
0.140941
0.140839
0.140736
0.140632
0.140527
0.140421
0.140315
0.140207
0.140099
0.13999
0.139881
0.139771
0.139661
0.139551
0.13944
0.139329
0.139218
0.139107
0.138996
0.138885
0.138774
0.138664
0.138553
0.138443
0.138333
0.138223
0.138114
0.138005
0.137896
0.137788
0.13768
0.137572
0.137465
0.137359
0.137253
0.137148
0.137043
0.136938
0.136835
0.136732
0.136629
0.136527
0.136426
0.136325
0.136225
0.136125
0.136026
0.135928
0.13583
0.135733
0.135637
0.135541
0.135446
0.135351
0.135257
0.135164
0.135071
0.134979
0.134888
0.134797
0.134707
0.134617
0.134528
0.134439
0.134352
0.134264
0.134178
0.134092
0.134006
0.133921
0.133837
0.133753
0.133669
0.133587
0.133504
0.133422
0.133341
0.13326
0.13318
0.1331
0.133021
0.132942
0.132864
0.132786
0.132709
0.132632
0.132555
0.132479
0.132404
0.132329
0.132254
0.13218
0.132106
0.132032
0.131959
0.131886
0.131814
0.131742
0.13167
0.131599
0.131528
0.131458
0.131387
0.131318
0.131248
0.131179
0.13111
0.131042
0.130973
0.130906
0.130838
0.130771
0.130704
0.130637
0.130571
0.130505
0.130439
0.130374
0.130309
0.130244
0.130179
0.130115
0.130051
0.129987
0.129923
0.12986
0.129797
0.129734
0.129672
0.12961
0.129548
0.129486
0.129425
0.129363
0.129303
0.129242
0.129181
0.129121
0.129061
0.129002
0.128942
0.128883
0.128824
0.128766
0.128707
0.128649
0.128591
0.128534
0.128477
0.128419
0.128363
0.128306
0.12825
0.128194
0.128139
0.128083
0.128028
0.127973
0.127919
0.127865
0.127811
0.127758
0.127704
0.127652
0.127599
0.127547
0.127495
0.127444
0.127393
0.127342
0.127292
0.127242
0.127193
0.127144
0.127095
0.127047
0.127
0.126952
0.126906
0.12686
0.126814
0.126769
0.126724
0.12668
0.126637
0.126594
0.126552
0.12651
0.126469
0.126429
0.126389
0.12635
0.126312
0.126275
0.126238
0.126202
0.126167
0.126133
0.1261
0.126068
0.126036
0.126005
0.125976
0.125947
0.125919
0.125893
0.125867
0.125843
0.125819
0.125797
0.125776
0.125756
0.125737
0.12572
0.125703
0.125688
0.125675
0.125662
0.125651
0.125641
0.125632
0.125624
0.125618
0.125613
0.125609
0.125609
0.1
0.100002
0.100008
0.100018
0.100033
0.100051
0.100074
0.1001
0.100131
0.100167
0.100206
0.10025
0.100298
0.100351
0.100408
0.10047
0.100536
0.100608
0.100684
0.100765
0.100851
0.100942
0.101039
0.101141
0.101248
0.101361
0.10148
0.101604
0.101735
0.101871
0.102014
0.102164
0.10232
0.102482
0.102652
0.102829
0.103012
0.103204
0.103403
0.103609
0.103824
0.104046
0.104277
0.104516
0.104764
0.105021
0.105286
0.105561
0.105844
0.106137
0.10644
0.106752
0.107074
0.107406
0.107748
0.1081
0.108462
0.108834
0.109217
0.109609
0.110012
0.110425
0.110849
0.111282
0.111726
0.112179
0.112642
0.113115
0.113597
0.114088
0.114589
0.115098
0.115615
0.11614
0.116673
0.117213
0.11776
0.118313
0.118872
0.119436
0.120006
0.120579
0.121156
0.121735
0.122317
0.122901
0.123486
0.124071
0.124655
0.125239
0.12582
0.126399
0.126975
0.127547
0.128114
0.128676
0.129231
0.129781
0.130322
0.130856
0.131382
0.131898
0.132405
0.132901
0.133387
0.133862
0.134326
0.134778
0.135218
0.135645
0.13606
0.136461
0.13685
0.137225
0.137587
0.137936
0.138271
0.138592
0.1389
0.139195
0.139476
0.139744
0.139998
0.140239
0.140468
0.140684
0.140887
0.141077
0.141256
0.141423
0.141578
0.141721
0.141854
0.141975
0.142086
0.142187
0.142277
0.142358
0.142429
0.142492
0.142545
0.14259
0.142626
0.142655
0.142676
0.142689
0.142695
0.142695
0.142687
0.142674
0.142654
0.142629
0.142598
0.142562
0.14252
0.142474
0.142423
0.142368
0.142309
0.142246
0.142179
0.142108
0.142034
0.141957
0.141877
0.141794
0.141709
0.141621
0.14153
0.141438
0.141343
0.141247
0.141149
0.141049
0.140948
0.140845
0.140741
0.140636
0.14053
0.140423
0.140315
0.140207
0.140097
0.139987
0.139877
0.139766
0.139655
0.139543
0.139432
0.13932
0.139208
0.139096
0.138984
0.138872
0.13876
0.138648
0.138536
0.138425
0.138314
0.138203
0.138093
0.137983
0.137873
0.137764
0.137655
0.137546
0.137438
0.137331
0.137224
0.137117
0.137011
0.136906
0.136801
0.136697
0.136594
0.136491
0.136388
0.136286
0.136185
0.136085
0.135985
0.135885
0.135787
0.135689
0.135591
0.135494
0.135398
0.135303
0.135208
0.135114
0.13502
0.134927
0.134834
0.134743
0.134651
0.134561
0.134471
0.134382
0.134293
0.134205
0.134117
0.13403
0.133943
0.133857
0.133772
0.133687
0.133603
0.133519
0.133436
0.133353
0.133271
0.13319
0.133109
0.133028
0.132948
0.132868
0.132789
0.13271
0.132632
0.132554
0.132477
0.1324
0.132324
0.132248
0.132172
0.132097
0.132022
0.131948
0.131874
0.1318
0.131727
0.131654
0.131582
0.13151
0.131438
0.131367
0.131296
0.131226
0.131155
0.131085
0.131016
0.130947
0.130878
0.130809
0.130741
0.130673
0.130606
0.130538
0.130471
0.130405
0.130338
0.130272
0.130206
0.130141
0.130075
0.13001
0.129946
0.129881
0.129817
0.129753
0.12969
0.129627
0.129563
0.129501
0.129438
0.129376
0.129314
0.129252
0.129191
0.129129
0.129069
0.129008
0.128947
0.128887
0.128827
0.128768
0.128708
0.128649
0.12859
0.128532
0.128473
0.128415
0.128358
0.1283
0.128243
0.128186
0.128129
0.128073
0.128017
0.127961
0.127906
0.12785
0.127796
0.127741
0.127687
0.127633
0.127579
0.127526
0.127473
0.127421
0.127369
0.127317
0.127265
0.127214
0.127164
0.127114
0.127064
0.127015
0.126966
0.126917
0.126869
0.126822
0.126775
0.126728
0.126682
0.126637
0.126592
0.126548
0.126504
0.126461
0.126418
0.126376
0.126335
0.126294
0.126254
0.126215
0.126177
0.126139
0.126102
0.126066
0.126031
0.125996
0.125963
0.12593
0.125898
0.125867
0.125837
0.125808
0.12578
0.125754
0.125728
0.125703
0.125679
0.125657
0.125635
0.125615
0.125596
0.125579
0.125562
0.125547
0.125533
0.12552
0.125508
0.125498
0.125489
0.125482
0.125475
0.12547
0.125466
0.125466
0.1
0.100002
0.100008
0.100018
0.100032
0.100051
0.100073
0.1001
0.10013
0.100165
0.100205
0.100248
0.100296
0.100349
0.100405
0.100467
0.100533
0.100604
0.100679
0.10076
0.100846
0.100936
0.101032
0.101134
0.10124
0.101353
0.101471
0.101595
0.101724
0.10186
0.102003
0.102151
0.102307
0.102468
0.102637
0.102813
0.102996
0.103187
0.103385
0.103591
0.103805
0.104026
0.104257
0.104495
0.104742
0.104998
0.105263
0.105537
0.105821
0.106113
0.106416
0.106728
0.107049
0.107381
0.107723
0.108075
0.108437
0.10881
0.109192
0.109585
0.109989
0.110403
0.110827
0.111261
0.111706
0.11216
0.112625
0.113099
0.113583
0.114076
0.114578
0.115089
0.115608
0.116136
0.116671
0.117214
0.117763
0.118319
0.118881
0.119449
0.120021
0.120597
0.121178
0.121761
0.122346
0.122933
0.123521
0.12411
0.124698
0.125285
0.12587
0.126452
0.127031
0.127606
0.128177
0.128742
0.129301
0.129853
0.130397
0.130934
0.131461
0.13198
0.132489
0.132987
0.133475
0.133952
0.134417
0.13487
0.135311
0.135739
0.136154
0.136557
0.136946
0.137321
0.137683
0.138032
0.138366
0.138687
0.138995
0.139289
0.139569
0.139836
0.140089
0.140329
0.140557
0.140771
0.140973
0.141162
0.141339
0.141504
0.141658
0.1418
0.14193
0.14205
0.142159
0.142258
0.142347
0.142426
0.142496
0.142556
0.142608
0.142651
0.142686
0.142712
0.142731
0.142743
0.142747
0.142745
0.142736
0.142721
0.142699
0.142672
0.14264
0.142602
0.142559
0.142511
0.142458
0.142402
0.142341
0.142276
0.142207
0.142135
0.14206
0.141981
0.141899
0.141815
0.141728
0.141639
0.141547
0.141453
0.141357
0.141259
0.141159
0.141058
0.140955
0.140851
0.140746
0.14064
0.140532
0.140424
0.140314
0.140204
0.140094
0.139982
0.139871
0.139758
0.139646
0.139533
0.13942
0.139307
0.139193
0.13908
0.138967
0.138853
0.13874
0.138627
0.138514
0.138402
0.138289
0.138177
0.138065
0.137954
0.137843
0.137732
0.137622
0.137512
0.137403
0.137294
0.137186
0.137079
0.136971
0.136865
0.136759
0.136653
0.136549
0.136444
0.136341
0.136238
0.136135
0.136033
0.135932
0.135832
0.135732
0.135633
0.135534
0.135436
0.135339
0.135242
0.135146
0.13505
0.134955
0.134861
0.134768
0.134675
0.134582
0.134491
0.134399
0.134309
0.134219
0.13413
0.134041
0.133953
0.133865
0.133778
0.133691
0.133606
0.13352
0.133435
0.133351
0.133267
0.133184
0.133101
0.133019
0.132938
0.132856
0.132776
0.132695
0.132616
0.132536
0.132458
0.132379
0.132301
0.132224
0.132147
0.13207
0.131994
0.131919
0.131843
0.131768
0.131694
0.13162
0.131546
0.131473
0.1314
0.131327
0.131255
0.131183
0.131112
0.131041
0.13097
0.130899
0.130829
0.13076
0.13069
0.130621
0.130552
0.130484
0.130416
0.130348
0.130281
0.130213
0.130146
0.13008
0.130014
0.129948
0.129882
0.129816
0.129751
0.129686
0.129622
0.129557
0.129493
0.12943
0.129366
0.129303
0.12924
0.129177
0.129115
0.129053
0.128991
0.128929
0.128868
0.128807
0.128746
0.128686
0.128625
0.128565
0.128506
0.128446
0.128387
0.128328
0.12827
0.128211
0.128153
0.128095
0.128038
0.127981
0.127924
0.127867
0.127811
0.127755
0.127699
0.127644
0.127589
0.127534
0.12748
0.127426
0.127372
0.127319
0.127266
0.127213
0.127161
0.127109
0.127058
0.127007
0.126956
0.126906
0.126856
0.126807
0.126758
0.126709
0.126661
0.126614
0.126567
0.126521
0.126475
0.12643
0.126385
0.126341
0.126297
0.126254
0.126212
0.12617
0.126129
0.126089
0.126049
0.126011
0.125973
0.125935
0.125899
0.125863
0.125828
0.125794
0.125761
0.125729
0.125698
0.125668
0.125638
0.12561
0.125583
0.125557
0.125532
0.125508
0.125485
0.125463
0.125443
0.125424
0.125406
0.125389
0.125373
0.125359
0.125346
0.125334
0.125324
0.125315
0.125307
0.125301
0.125296
0.125291
0.125291
0.1
0.100002
0.100008
0.100018
0.100032
0.10005
0.100072
0.100099
0.100129
0.100164
0.100203
0.100246
0.100294
0.100346
0.100402
0.100463
0.100529
0.100599
0.100674
0.100754
0.100839
0.100929
0.101025
0.101125
0.101231
0.101343
0.10146
0.101583
0.101712
0.101847
0.101989
0.102137
0.102291
0.102452
0.10262
0.102795
0.102977
0.103167
0.103364
0.103569
0.103782
0.104003
0.104232
0.10447
0.104717
0.104972
0.105236
0.10551
0.105792
0.106085
0.106387
0.106698
0.10702
0.107351
0.107693
0.108045
0.108407
0.10878
0.109163
0.109557
0.109961
0.110375
0.1108
0.111236
0.111682
0.112137
0.112603
0.113079
0.113565
0.11406
0.114565
0.115078
0.1156
0.11613
0.116669
0.117214
0.117767
0.118327
0.118892
0.119463
0.120039
0.120619
0.121203
0.121791
0.12238
0.122971
0.123564
0.124156
0.124749
0.12534
0.125929
0.126515
0.127098
0.127677
0.128251
0.12882
0.129382
0.129938
0.130486
0.131025
0.131556
0.132077
0.132589
0.13309
0.133579
0.134058
0.134525
0.134979
0.135421
0.13585
0.136267
0.136669
0.137059
0.137434
0.137797
0.138145
0.138479
0.1388
0.139107
0.1394
0.139679
0.139945
0.140197
0.140436
0.140661
0.140874
0.141074
0.141262
0.141437
0.141601
0.141752
0.141892
0.142021
0.142139
0.142246
0.142343
0.142429
0.142506
0.142574
0.142632
0.142682
0.142722
0.142755
0.14278
0.142797
0.142806
0.142808
0.142804
0.142793
0.142775
0.142752
0.142723
0.142688
0.142648
0.142603
0.142553
0.142499
0.14244
0.142377
0.14231
0.14224
0.142166
0.142089
0.142008
0.141925
0.141838
0.141749
0.141658
0.141565
0.141469
0.141371
0.141271
0.14117
0.141067
0.140963
0.140857
0.14075
0.140642
0.140533
0.140423
0.140312
0.1402
0.140088
0.139975
0.139861
0.139747
0.139633
0.139519
0.139404
0.139289
0.139174
0.139059
0.138944
0.13883
0.138715
0.1386
0.138486
0.138372
0.138258
0.138144
0.138031
0.137918
0.137805
0.137693
0.137581
0.13747
0.137359
0.137249
0.137139
0.13703
0.136921
0.136813
0.136706
0.136599
0.136493
0.136387
0.136282
0.136177
0.136073
0.13597
0.135868
0.135766
0.135664
0.135564
0.135463
0.135364
0.135265
0.135167
0.13507
0.134973
0.134877
0.134781
0.134686
0.134592
0.134498
0.134405
0.134312
0.13422
0.134129
0.134038
0.133948
0.133859
0.13377
0.133681
0.133594
0.133506
0.13342
0.133334
0.133248
0.133163
0.133079
0.132995
0.132911
0.132828
0.132746
0.132664
0.132582
0.132502
0.132421
0.132341
0.132262
0.132182
0.132104
0.132026
0.131948
0.131871
0.131794
0.131717
0.131641
0.131566
0.131491
0.131416
0.131341
0.131267
0.131194
0.131121
0.131048
0.130975
0.130903
0.130831
0.13076
0.130689
0.130618
0.130548
0.130478
0.130408
0.130338
0.130269
0.130201
0.130132
0.130064
0.129996
0.129929
0.129862
0.129795
0.129728
0.129662
0.129596
0.12953
0.129465
0.129399
0.129335
0.12927
0.129206
0.129142
0.129078
0.129015
0.128951
0.128888
0.128826
0.128763
0.128701
0.12864
0.128578
0.128517
0.128456
0.128395
0.128335
0.128275
0.128215
0.128155
0.128096
0.128037
0.127978
0.12792
0.127862
0.127804
0.127746
0.127689
0.127632
0.127576
0.127519
0.127464
0.127408
0.127353
0.127298
0.127243
0.127189
0.127135
0.127081
0.127028
0.126976
0.126923
0.126871
0.12682
0.126769
0.126718
0.126668
0.126618
0.126568
0.12652
0.126471
0.126423
0.126376
0.126329
0.126283
0.126237
0.126192
0.126147
0.126103
0.12606
0.126017
0.125975
0.125934
0.125893
0.125853
0.125814
0.125775
0.125737
0.125701
0.125664
0.125629
0.125595
0.125561
0.125529
0.125497
0.125467
0.125437
0.125408
0.125381
0.125354
0.125329
0.125304
0.125281
0.125259
0.125239
0.125219
0.125201
0.125184
0.125168
0.125153
0.12514
0.125128
0.125118
0.125109
0.125101
0.125094
0.125089
0.125085
0.125085
0.1
0.100002
0.100008
0.100018
0.100032
0.10005
0.100072
0.100098
0.100128
0.100163
0.100201
0.100244
0.100291
0.100343
0.100399
0.100459
0.100524
0.100594
0.100668
0.100748
0.100832
0.100921
0.101016
0.101115
0.101221
0.101331
0.101448
0.10157
0.101698
0.101832
0.101973
0.10212
0.102273
0.102433
0.1026
0.102774
0.102955
0.103144
0.10334
0.103544
0.103756
0.103976
0.104204
0.104441
0.104687
0.104941
0.105205
0.105478
0.10576
0.106051
0.106353
0.106664
0.106985
0.107317
0.107658
0.10801
0.108373
0.108746
0.109129
0.109523
0.109928
0.110343
0.110769
0.111206
0.111653
0.112111
0.112579
0.113056
0.113544
0.114042
0.114549
0.115065
0.11559
0.116124
0.116665
0.117214
0.117771
0.118334
0.118904
0.119479
0.120059
0.120644
0.121233
0.121825
0.122419
0.123015
0.123612
0.12421
0.124807
0.125403
0.125997
0.126588
0.127176
0.127759
0.128338
0.128911
0.129477
0.130037
0.130588
0.131131
0.131665
0.13219
0.132704
0.133208
0.1337
0.134181
0.134649
0.135106
0.135549
0.135979
0.136396
0.1368
0.13719
0.137566
0.137928
0.138276
0.13861
0.13893
0.139236
0.139528
0.139806
0.14007
0.140321
0.140558
0.140782
0.140993
0.141192
0.141377
0.14155
0.141712
0.141861
0.141999
0.142125
0.14224
0.142345
0.14244
0.142524
0.142598
0.142663
0.142719
0.142766
0.142804
0.142834
0.142856
0.142871
0.142878
0.142878
0.142871
0.142857
0.142837
0.142811
0.14278
0.142743
0.1427
0.142653
0.142601
0.142544
0.142483
0.142418