# vtk DataFile Version 3.0
LBM Fluid Grid
ASCII
DATASET STRUCTURED_POINTS
DIMENSIONS 400 150 1
ORIGIN 0 0 0
SPACING 1 1 1
POINT_DATA 60000
SCALARS VelocityMagnitude double 1
LOOKUP_TABLE default
0.1
0.100003
0.10001
0.100021
0.100036
0.100055
0.100079
0.100106
0.100138
0.100174
0.100214
0.100259
0.100308
0.100362
0.100421
0.100484
0.100552
0.100625
0.100702
0.100785
0.100873
0.100966
0.101065
0.101168
0.101278
0.101392
0.101513
0.10164
0.101772
0.101911
0.102055
0.102207
0.102365
0.102529
0.1027
0.102879
0.103064
0.103257
0.103458
0.103666
0.103882
0.104106
0.104339
0.104579
0.104828
0.105086
0.105353
0.105629
0.105914
0.106208
0.106511
0.106824
0.107147
0.107479
0.107821
0.108173
0.108534
0.108906
0.109288
0.10968
0.110081
0.110493
0.110914
0.111346
0.111787
0.112237
0.112698
0.113167
0.113645
0.114133
0.114629
0.115133
0.115646
0.116166
0.116693
0.117227
0.117768
0.118315
0.118867
0.119425
0.119987
0.120553
0.121123
0.121695
0.122269
0.122845
0.123422
0.123999
0.124576
0.125152
0.125726
0.126297
0.126865
0.12743
0.12799
0.128545
0.129094
0.129637
0.130173
0.130701
0.131221
0.131732
0.132234
0.132726
0.133208
0.133679
0.13414
0.134589
0.135026
0.135451
0.135864
0.136264
0.136652
0.137027
0.137388
0.137737
0.138073
0.138395
0.138704
0.139
0.139282
0.139552
0.139808
0.140052
0.140283
0.140501
0.140707
0.1409
0.141082
0.141252
0.14141
0.141557
0.141693
0.141818
0.141933
0.142037
0.142131
0.142216
0.142291
0.142357
0.142414
0.142463
0.142503
0.142535
0.14256
0.142577
0.142587
0.14259
0.142586
0.142576
0.142561
0.142539
0.142511
0.142479
0.142441
0.142398
0.142351
0.142299
0.142243
0.142183
0.14212
0.142053
0.141982
0.141908
0.141831
0.141752
0.141669
0.141585
0.141497
0.141408
0.141317
0.141223
0.141128
0.141031
0.140933
0.140834
0.140733
0.140631
0.140527
0.140423
0.140318
0.140213
0.140106
0.139999
0.139892
0.139784
0.139675
0.139567
0.139458
0.139349
0.139239
0.13913
0.139021
0.138912
0.138803
0.138694
0.138585
0.138476
0.138368
0.13826
0.138152
0.138045
0.137938
0.137831
0.137725
0.137619
0.137514
0.137409
0.137305
0.137202
0.137098
0.136996
0.136894
0.136792
0.136691
0.136591
0.136491
0.136392
0.136293
0.136196
0.136098
0.136002
0.135906
0.13581
0.135715
0.135621
0.135528
0.135435
0.135342
0.135251
0.13516
0.135069
0.134979
0.13489
0.134801
0.134713
0.134626
0.134539
0.134453
0.134367
0.134282
0.134197
0.134113
0.13403
0.133947
0.133865
0.133783
0.133701
0.133621
0.13354
0.133461
0.133381
0.133303
0.133224
0.133146
0.133069
0.132992
0.132916
0.13284
0.132764
0.132689
0.132615
0.13254
0.132467
0.132393
0.13232
0.132248
0.132175
0.132104
0.132032
0.131961
0.13189
0.13182
0.13175
0.131681
0.131611
0.131542
0.131474
0.131406
0.131338
0.13127
0.131203
0.131136
0.131069
0.131003
0.130937
0.130871
0.130805
0.13074
0.130675
0.130611
0.130546
0.130482
0.130418
0.130355
0.130292
0.130229
0.130166
0.130103
0.130041
0.129979
0.129917
0.129856
0.129795
0.129734
0.129673
0.129613
0.129552
0.129492
0.129433
0.129373
0.129314
0.129255
0.129196
0.129137
0.129079
0.129021
0.128963
0.128906
0.128849
0.128792
0.128735
0.128678
0.128622
0.128566
0.12851
0.128455
0.1284
0.128345
0.12829
0.128236
0.128182
0.128128
0.128075
0.128022
0.127969
0.127917
0.127864
0.127813
0.127761
0.12771
0.127659
0.127609
0.127559
0.127509
0.12746
0.127411
0.127363
0.127315
0.127268
0.127221
0.127174
0.127128
0.127082
0.127037
0.126993
0.126949
0.126905
0.126862
0.12682
0.126779
0.126738
0.126697
0.126657
0.126618
0.12658
0.126542
0.126505
0.126469
0.126434
0.1264
0.126366
0.126333
0.126301
0.12627
0.12624
0.126211
0.126183
0.126155
0.126129
0.126104
0.12608
0.126057
0.126035
0.126015
0.125995
0.125977
0.125959
0.125943
0.125929
0.125915
0.125903
0.125892
0.125882
0.125873
0.125866
0.12586
0.125854
0.12585
0.12585
0.1
0.100003
0.10001
0.100021
0.100036
0.100055
0.100079
0.100106
0.100138
0.100174
0.100214
0.100259
0.100309
0.100362
0.100421
0.100484
0.100552
0.100625
0.100703
0.100786
0.100874
0.100967
0.101065
0.101169
0.101278
0.101393
0.101514
0.10164
0.101773
0.101912
0.102057
0.102208
0.102366
0.10253
0.102702
0.10288
0.103066
0.103259
0.10346
0.103668
0.103884
0.104108
0.10434
0.104581
0.10483
0.105088
0.105355
0.105631
0.105916
0.10621
0.106513
0.106826
0.107149
0.107481
0.107823
0.108175
0.108537
0.108908
0.10929
0.109682
0.110083
0.110495
0.110916
0.111348
0.111789
0.112239
0.112699
0.113168
0.113647
0.114134
0.11463
0.115134
0.115646
0.116166
0.116693
0.117227
0.117768
0.118314
0.118867
0.119424
0.119986
0.120551
0.121121
0.121693
0.122267
0.122842
0.123419
0.123996
0.124572
0.125148
0.125721
0.126292
0.12686
0.127425
0.127984
0.128539
0.129088
0.12963
0.130166
0.130694
0.131213
0.131724
0.132226
0.132718
0.1332
0.133671
0.134131
0.13458
0.135017
0.135443
0.135855
0.136256
0.136643
0.137018
0.13738
0.137728
0.138064
0.138386
0.138695
0.138991
0.139274
0.139543
0.1398
0.140044
0.140275
0.140493
0.140699
0.140893
0.141074
0.141244
0.141403
0.14155
0.141686
0.141811
0.141926
0.14203
0.142125
0.142209
0.142285
0.142351
0.142408
0.142457
0.142497
0.14253
0.142555
0.142572
0.142582
0.142585
0.142582
0.142572
0.142556
0.142535
0.142507
0.142475
0.142437
0.142395
0.142347
0.142296
0.14224
0.14218
0.142117
0.14205
0.141979
0.141906
0.141829
0.141749
0.141667
0.141583
0.141496
0.141406
0.141315
0.141222
0.141127
0.14103
0.140932
0.140833
0.140732
0.14063
0.140527
0.140423
0.140318
0.140212
0.140106
0.139999
0.139892
0.139784
0.139676
0.139567
0.139458
0.139349
0.13924
0.139131
0.139022
0.138913
0.138804
0.138695
0.138587
0.138478
0.13837
0.138262
0.138154
0.138047
0.13794
0.137834
0.137728
0.137622
0.137517
0.137412
0.137308
0.137205
0.137101
0.136999
0.136897
0.136796
0.136695
0.136595
0.136495
0.136396
0.136298
0.1362
0.136103
0.136006
0.13591
0.135815
0.13572
0.135626
0.135533
0.13544
0.135348
0.135256
0.135165
0.135075
0.134985
0.134896
0.134807
0.134719
0.134632
0.134545
0.134459
0.134373
0.134288
0.134204
0.13412
0.134037
0.133954
0.133872
0.13379
0.133709
0.133628
0.133548
0.133468
0.133389
0.13331
0.133232
0.133154
0.133077
0.133
0.132924
0.132848
0.132773
0.132698
0.132623
0.132549
0.132475
0.132402
0.132329
0.132257
0.132184
0.132113
0.132041
0.13197
0.1319
0.13183
0.13176
0.13169
0.131621
0.131552
0.131484
0.131416
0.131348
0.13128
0.131213
0.131146
0.131079
0.131013
0.130947
0.130882
0.130816
0.130751
0.130686
0.130622
0.130557
0.130493
0.13043
0.130366
0.130303
0.13024
0.130177
0.130115
0.130053
0.129991
0.129929
0.129868
0.129807
0.129746
0.129685
0.129625
0.129564
0.129505
0.129445
0.129385
0.129326
0.129267
0.129209
0.12915
0.129092
0.129034
0.128976
0.128919
0.128861
0.128805
0.128748
0.128691
0.128635
0.128579
0.128524
0.128468
0.128413
0.128358
0.128304
0.128249
0.128196
0.128142
0.128088
0.128035
0.127983
0.12793
0.127878
0.127826
0.127775
0.127724
0.127673
0.127623
0.127573
0.127524
0.127474
0.127426
0.127377
0.127329
0.127282
0.127235
0.127188
0.127142
0.127097
0.127052
0.127007
0.126963
0.12692
0.126877
0.126835
0.126793
0.126752
0.126712
0.126672
0.126633
0.126595
0.126557
0.126521
0.126484
0.126449
0.126415
0.126381
0.126348
0.126316
0.126285
0.126255
0.126226
0.126198
0.126171
0.126145
0.12612
0.126096
0.126073
0.126051
0.12603
0.126011
0.125992
0.125975
0.125959
0.125944
0.125931
0.125918
0.125907
0.125898
0.125889
0.125882
0.125875
0.12587
0.125866
0.125866
0.1
0.100003
0.10001
0.100021
0.100036
0.100055
0.100079
0.100106
0.100138
0.100174
0.100214
0.100259
0.100308
0.100362
0.100421
0.100484
0.100552
0.100625
0.100702
0.100785
0.100873
0.100966
0.101065
0.101168
0.101278
0.101392
0.101513
0.10164
0.101772
0.101911
0.102055
0.102207
0.102365
0.102529
0.1027
0.102879
0.103064
0.103257
0.103458
0.103666
0.103882
0.104106
0.104339
0.104579
0.104828
0.105086
0.105353
0.105629
0.105914
0.106208
0.106511
0.106824
0.107147
0.107479
0.107821
0.108173
0.108534
0.108906
0.109288
0.10968
0.110081
0.110493
0.110914
0.111346
0.111787
0.112237
0.112698
0.113167
0.113645
0.114133
0.114629
0.115133
0.115646
0.116166
0.116693
0.117227
0.117768
0.118315
0.118867
0.119425
0.119987
0.120553
0.121123
0.121695
0.122269
0.122845
0.123422
0.123999
0.124576
0.125152
0.125726
0.126297
0.126865
0.12743
0.12799
0.128545
0.129094
0.129637
0.130173
0.130701
0.131221
0.131732
0.132234
0.132726
0.133208
0.133679
0.13414
0.134589
0.135026
0.135451
0.135864
0.136264
0.136652
0.137027
0.137388
0.137737
0.138073
0.138395
0.138704
0.139
0.139282
0.139552
0.139808
0.140052
0.140283
0.140501
0.140707
0.1409
0.141082
0.141252
0.14141
0.141557
0.141693
0.141818
0.141933
0.142037
0.142131
0.142216
0.142291
0.142357
0.142414
0.142463
0.142503
0.142535
0.14256
0.142577
0.142587
0.14259
0.142586
0.142576
0.142561
0.142539
0.142511
0.142479
0.142441
0.142398
0.142351
0.142299
0.142243
0.142183
0.14212
0.142053
0.141982
0.141908
0.141831
0.141752
0.141669
0.141585
0.141497
0.141408
0.141317
0.141223
0.141128
0.141031
0.140933
0.140834
0.140733
0.140631
0.140527
0.140423
0.140318
0.140213
0.140106
0.139999
0.139892
0.139784
0.139675
0.139567
0.139458
0.139349
0.139239
0.13913
0.139021
0.138912
0.138803
0.138694
0.138585
0.138476
0.138368
0.13826
0.138152
0.138045
0.137938
0.137831
0.137725
0.137619
0.137514
0.137409
0.137305
0.137202
0.137098
0.136996
0.136894
0.136792
0.136691
0.136591
0.136491
0.136392
0.136293
0.136196
0.136098
0.136002
0.135906
0.13581
0.135715
0.135621
0.135528
0.135435
0.135342
0.135251
0.13516
0.135069
0.134979
0.13489
0.134801
0.134713
0.134626
0.134539
0.134453
0.134367
0.134282
0.134197
0.134113
0.13403
0.133947
0.133865
0.133783
0.133701
0.133621
0.13354
0.133461
0.133381
0.133303
0.133224
0.133146
0.133069
0.132992
0.132916
0.13284
0.132764
0.132689
0.132615
0.13254
0.132467
0.132393
0.13232
0.132248
0.132175
0.132104
0.132032
0.131961
0.13189
0.13182
0.13175
0.131681
0.131611
0.131542
0.131474
0.131406
0.131338
0.13127
0.131203
0.131136
0.131069
0.131003
0.130937
0.130871
0.130805
0.13074
0.130675
0.130611
0.130546
0.130482
0.130418
0.130355
0.130292
0.130229
0.130166
0.130103
0.130041
0.129979
0.129917
0.129856
0.129795
0.129734
0.129673
0.129613
0.129552
0.129492
0.129433
0.129373
0.129314
0.129255
0.129196
0.129137
0.129079
0.129021
0.128963
0.128906
0.128849
0.128792
0.128735
0.128678
0.128622
0.128566
0.12851
0.128455
0.1284
0.128345
0.12829
0.128236
0.128182
0.128128
0.128075
0.128022
0.127969
0.127917
0.127864
0.127813
0.127761
0.12771
0.127659
0.127609
0.127559
0.127509
0.12746
0.127411
0.127363
0.127315
0.127268
0.127221
0.127174
0.127128
0.127082
0.127037
0.126993
0.126949
0.126905
0.126862
0.12682
0.126779
0.126738
0.126697
0.126657
0.126618
0.12658
0.126542
0.126505
0.126469
0.126434
0.1264
0.126366
0.126333
0.126301
0.12627
0.12624
0.126211
0.126183
0.126155
0.126129
0.126104
0.12608
0.126057
0.126035
0.126015
0.125995
0.125977
0.125959
0.125943
0.125929
0.125915
0.125903
0.125892
0.125882
0.125873
0.125866
0.12586
0.125854
0.12585
0.12585
0.1
0.100003
0.10001
0.100021
0.100036
0.100055
0.100079
0.100106
0.100138
0.100174
0.100214
0.100259
0.100308
0.100362
0.10042
0.100483
0.100551
0.100624
0.100701
0.100784
0.100872
0.100964
0.101063
0.101166
0.101275
0.10139
0.101511
0.101637
0.101769
0.101908
0.102052
0.102203
0.102361
0.102525
0.102696
0.102875
0.10306
0.103253
0.103453
0.103661
0.103877
0.104101
0.104333
0.104574
0.104823
0.10508
0.105347
0.105622
0.105907
0.106201
0.106504
0.106817
0.10714
0.107472
0.107814
0.108166
0.108528
0.1089
0.109281
0.109673
0.110075
0.110487
0.110908
0.11134
0.111781
0.112232
0.112693
0.113163
0.113642
0.114129
0.114626
0.115131
0.115644
0.116165
0.116693
0.117228
0.117769
0.118317
0.11887
0.119428
0.119991
0.120558
0.121129
0.121702
0.122277
0.122854
0.123432
0.12401
0.124588
0.125164
0.125739
0.126312
0.126881
0.127446
0.128007
0.128563
0.129113
0.129656
0.130193
0.130721
0.131242
0.131754
0.132256
0.132749
0.133232
0.133703
0.134164
0.134614
0.135051
0.135476
0.13589
0.13629
0.136678
0.137053
0.137414
0.137763
0.138098
0.138421
0.138729
0.139025
0.139307
0.139577
0.139833
0.140076
0.140307
0.140525
0.14073
0.140924
0.141105
0.141274
0.141432
0.141579
0.141714
0.141839
0.141953
0.142057
0.14215
0.142234
0.142309
0.142375
0.142431
0.142479
0.142519
0.142551
0.142575
0.142592
0.142601
0.142604
0.1426
0.14259
0.142573
0.142551
0.142523
0.14249
0.142452
0.142409
0.142361
0.142309
0.142252
0.142192
0.142128
0.14206
0.141989
0.141915
0.141838
0.141758
0.141675
0.14159
0.141503
0.141413
0.141321
0.141227
0.141132
0.141035
0.140936
0.140836
0.140735
0.140632
0.140529
0.140424
0.140319
0.140213
0.140106
0.139999
0.139891
0.139783
0.139674
0.139565
0.139456
0.139346
0.139237
0.139127
0.139018
0.138908
0.138799
0.138689
0.13858
0.138471
0.138363
0.138254
0.138146
0.138038
0.137931
0.137824
0.137718
0.137612
0.137506
0.137401
0.137296
0.137192
0.137089
0.136986
0.136883
0.136782
0.13668
0.13658
0.13648
0.13638
0.136281
0.136183
0.136085
0.135988
0.135892
0.135796
0.135701
0.135607
0.135513
0.135419
0.135327
0.135235
0.135143
0.135053
0.134962
0.134873
0.134784
0.134696
0.134608
0.134521
0.134434
0.134348
0.134263
0.134178
0.134093
0.13401
0.133926
0.133844
0.133762
0.13368
0.133599
0.133518
0.133438
0.133359
0.133279
0.133201
0.133123
0.133045
0.132968
0.132891
0.132815
0.132739
0.132664
0.132589
0.132514
0.13244
0.132367
0.132293
0.132221
0.132148
0.132076
0.132004
0.131933
0.131862
0.131791
0.131721
0.131651
0.131582
0.131513
0.131444
0.131375
0.131307
0.131239
0.131172
0.131105
0.131038
0.130971
0.130905
0.130839
0.130773
0.130708
0.130642
0.130578
0.130513
0.130449
0.130385
0.130321
0.130257
0.130194
0.130131
0.130069
0.130006
0.129944
0.129882
0.12982
0.129759
0.129698
0.129637
0.129576
0.129516
0.129456
0.129396
0.129336
0.129276
0.129217
0.129158
0.1291
0.129041
0.128983
0.128925
0.128867
0.12881
0.128753
0.128696
0.128639
0.128583
0.128527
0.128471
0.128415
0.12836
0.128305
0.12825
0.128196
0.128141
0.128088
0.128034
0.127981
0.127928
0.127875
0.127823
0.127771
0.127719
0.127668
0.127617
0.127567
0.127517
0.127467
0.127418
0.127369
0.12732
0.127272
0.127225
0.127177
0.127131
0.127085
0.127039
0.126994
0.126949
0.126905
0.126861
0.126818
0.126776
0.126734
0.126693
0.126653
0.126613
0.126574
0.126535
0.126497
0.12646
0.126424
0.126389
0.126354
0.12632
0.126287
0.126255
0.126224
0.126194
0.126165
0.126137
0.126109
0.126083
0.126058
0.126034
0.126011
0.125989
0.125968
0.125948
0.12593
0.125912
0.125896
0.125881
0.125868
0.125855
0.125844
0.125834
0.125826
0.125818
0.125812
0.125807
0.125803
0.125803
0.1
0.100003
0.10001
0.100021
0.100036
0.100055
0.100078
0.100106
0.100137
0.100173
0.100213
0.100258
0.100307
0.100361
0.100419
0.100482
0.100549
0.100622
0.100699
0.100782
0.100869
0.100962
0.10106
0.101163
0.101272
0.101386
0.101507
0.101633
0.101765
0.101903
0.102047
0.102198
0.102355
0.102519
0.10269
0.102868
0.103053
0.103245
0.103445
0.103653
0.103868
0.104092
0.104324
0.104564
0.104813
0.10507
0.105337
0.105612
0.105896
0.10619
0.106493
0.106806
0.107129
0.107461
0.107803
0.108155
0.108517
0.108888
0.10927
0.109662
0.110064
0.110477
0.110899
0.111331
0.111772
0.112224
0.112685
0.113156
0.113635
0.114124
0.114621
0.115127
0.115641
0.116163
0.116692
0.117228
0.117771
0.11832
0.118874
0.119434
0.119998
0.120567
0.121139
0.121713
0.12229
0.122869
0.123448
0.124028
0.124607
0.125185
0.125762
0.126336
0.126906
0.127473
0.128035
0.128593
0.129144
0.129689
0.130226
0.130756
0.131278
0.131791
0.132294
0.132788
0.133271
0.133744
0.134205
0.134655
0.135093
0.135519
0.135932
0.136333
0.136721
0.137096
0.137458
0.137806
0.138142
0.138464
0.138772
0.139067
0.13935
0.139618
0.139874
0.140117
0.140347
0.140564
0.140769
0.140962
0.141143
0.141311
0.141469
0.141614
0.141749
0.141873
0.141986
0.142089
0.142182
0.142266
0.14234
0.142404
0.14246
0.142507
0.142547
0.142578
0.142601
0.142617
0.142625
0.142627
0.142623
0.142611
0.142594
0.142571
0.142543
0.142509
0.14247
0.142426
0.142378
0.142325
0.142268
0.142207
0.142142
0.142074
0.142002
0.141927
0.141849
0.141768
0.141685
0.141599
0.141511
0.141421
0.141328
0.141234
0.141138
0.14104
0.140941
0.14084
0.140738
0.140635
0.140531
0.140426
0.14032
0.140213
0.140106
0.139998
0.13989
0.139781
0.139671
0.139562
0.139452
0.139342
0.139232
0.139122
0.139012
0.138901
0.138791
0.138682
0.138572
0.138462
0.138353
0.138244
0.138135
0.138027
0.137919
0.137812
0.137705
0.137598
0.137492
0.137386
0.137281
0.137177
0.137072
0.136969
0.136866
0.136764
0.136662
0.136561
0.13646
0.13636
0.13626
0.136162
0.136063
0.135966
0.135869
0.135773
0.135677
0.135582
0.135488
0.135394
0.135301
0.135208
0.135116
0.135025
0.134934
0.134844
0.134754
0.134666
0.134577
0.13449
0.134402
0.134316
0.13423
0.134144
0.13406
0.133975
0.133892
0.133808
0.133726
0.133644
0.133562
0.133481
0.1334
0.13332
0.133241
0.133162
0.133083
0.133005
0.132927
0.13285
0.132773
0.132697
0.132621
0.132546
0.132471
0.132396
0.132322
0.132248
0.132175
0.132102
0.13203
0.131958
0.131886
0.131814
0.131743
0.131673
0.131602
0.131532
0.131463
0.131394
0.131325
0.131256
0.131188
0.13112
0.131052
0.130985
0.130918
0.130851
0.130785
0.130719
0.130653
0.130587
0.130522
0.130457
0.130393
0.130328
0.130264
0.1302
0.130137
0.130073
0.13001
0.129948
0.129885
0.129823
0.129761
0.129699
0.129638
0.129576
0.129515
0.129455
0.129394
0.129334
0.129274
0.129214
0.129155
0.129095
0.129036
0.128978
0.128919
0.128861
0.128803
0.128745
0.128688
0.12863
0.128574
0.128517
0.12846
0.128404
0.128348
0.128293
0.128238
0.128183
0.128128
0.128074
0.128019
0.127966
0.127912
0.127859
0.127806
0.127754
0.127702
0.12765
0.127598
0.127547
0.127496
0.127446
0.127396
0.127347
0.127298
0.127249
0.127201
0.127153
0.127105
0.127059
0.127012
0.126966
0.126921
0.126876
0.126832
0.126788
0.126745
0.126702
0.12666
0.126619
0.126578
0.126538
0.126499
0.12646
0.126422
0.126385
0.126349
0.126313
0.126278
0.126244
0.126211
0.126179
0.126148
0.126117
0.126088
0.12606
0.126032
0.126006
0.12598
0.125956
0.125933
0.125911
0.12589
0.12587
0.125851
0.125834
0.125818
0.125803
0.125789
0.125777
0.125766
0.125756
0.125747
0.125739
0.125733
0.125728
0.125724
0.125724
0.1
0.100003
0.10001
0.100021
0.100036
0.100055
0.100078
0.100105
0.100137
0.100172
0.100212
0.100257
0.100306
0.100359
0.100417
0.10048
0.100547
0.100619
0.100696
0.100778
0.100866
0.100958
0.101056
0.101159
0.101267
0.101381
0.101501
0.101626
0.101758
0.101896
0.102039
0.10219
0.102347
0.10251
0.102681
0.102858
0.103043
0.103235
0.103434
0.103641
0.103856
0.10408
0.104311
0.104551
0.104799
0.105056
0.105322
0.105597
0.105881
0.106175
0.106478
0.106791
0.107113
0.107445
0.107787
0.108139
0.108501
0.108873
0.109255
0.109647
0.11005
0.110462
0.110885
0.111317
0.11176
0.112212
0.112674
0.113146
0.113626
0.114116
0.114615
0.115122
0.115637
0.11616
0.116691
0.117229
0.117773
0.118324
0.11888
0.119442
0.120008
0.120579
0.121153
0.121729
0.122309
0.122889
0.123471
0.124053
0.124634
0.125215
0.125793
0.126369
0.126942
0.127511
0.128075
0.128634
0.129188
0.129734
0.130274
0.130805
0.131328
0.131843
0.132348
0.132842
0.133327
0.1338
0.134263
0.134713
0.135152
0.135578
0.135992
0.136393
0.136782
0.137157
0.137518
0.137867
0.138202
0.138524
0.138832
0.139127
0.139408
0.139677
0.139932
0.140174
0.140403
0.14062
0.140824
0.141016
0.141196
0.141363
0.14152
0.141664
0.141798
0.141921
0.142033
0.142135
0.142227
0.142309
0.142382
0.142446
0.1425
0.142547
0.142585
0.142614
0.142637
0.142651
0.142659
0.14266
0.142654
0.142642
0.142624
0.1426
0.14257
0.142535
0.142495
0.14245
0.142401
0.142347
0.142289
0.142227
0.142161
0.142092
0.142019
0.141943
0.141864
0.141783
0.141698
0.141612
0.141523
0.141431
0.141338
0.141243
0.141146
0.141047
0.140947
0.140846
0.140743
0.140639
0.140534
0.140428
0.140321
0.140214
0.140105
0.139997
0.139887
0.139777
0.139667
0.139557
0.139446
0.139335
0.139225
0.139114
0.139003
0.138892
0.138781
0.13867
0.13856
0.138449
0.138339
0.138229
0.13812
0.138011
0.137902
0.137794
0.137686
0.137579
0.137472
0.137365
0.137259
0.137154
0.137049
0.136945
0.136841
0.136738
0.136635
0.136533
0.136432
0.136331
0.136231
0.136131
0.136032
0.135934
0.135836
0.135739
0.135643
0.135547
0.135452
0.135357
0.135263
0.13517
0.135077
0.134985
0.134894
0.134803
0.134712
0.134623
0.134534
0.134445
0.134357
0.13427
0.134183
0.134097
0.134012
0.133927
0.133842
0.133758
0.133675
0.133592
0.13351
0.133428
0.133347
0.133266
0.133186
0.133106
0.133027
0.132948
0.13287
0.132792
0.132714
0.132637
0.132561
0.132485
0.132409
0.132334
0.132259
0.132185
0.132111
0.132037
0.131964
0.131892
0.131819
0.131747
0.131676
0.131604
0.131533
0.131463
0.131393
0.131323
0.131253
0.131184
0.131115
0.131047
0.130979
0.130911
0.130843
0.130776
0.130709
0.130642
0.130576
0.13051
0.130444
0.130379
0.130314
0.130249
0.130184
0.13012
0.130056
0.129992
0.129928
0.129865
0.129802
0.129739
0.129677
0.129615
0.129553
0.129491
0.12943
0.129368
0.129308
0.129247
0.129186
0.129126
0.129066
0.129007
0.128947
0.128888
0.128829
0.128771
0.128712
0.128654
0.128596
0.128539
0.128481
0.128424
0.128368
0.128311
0.128255
0.128199
0.128143
0.128088
0.128033
0.127978
0.127924
0.12787
0.127816
0.127762
0.127709
0.127656
0.127604
0.127552
0.1275
0.127449
0.127398
0.127347
0.127297
0.127247
0.127198
0.127149
0.1271
0.127052
0.127004
0.126957
0.126911
0.126864
0.126819
0.126774
0.126729
0.126685
0.126642
0.126599
0.126557
0.126515
0.126474
0.126434
0.126394
0.126355
0.126317
0.12628
0.126243
0.126207
0.126172
0.126138
0.126105
0.126072
0.126041
0.12601
0.12598
0.125952
0.125924
0.125898
0.125872
0.125847
0.125824
0.125802
0.125781
0.125761
0.125742
0.125724
0.125708
0.125693
0.125679
0.125666
0.125655
0.125645
0.125636
0.125629
0.125622
0.125617
0.125613
0.125613
0.1
0.100003
0.10001
0.100021
0.100036
0.100055
0.100078
0.100105
0.100136
0.100171
0.100211
0.100255
0.100304
0.100357
0.100415
0.100477
0.100544
0.100616
0.100693
0.100774
0.100861
0.100953
0.10105
0.101153
0.101261
0.101374
0.101493
0.101618
0.101749
0.101887
0.10203
0.10218
0.102336
0.102499
0.102669
0.102845
0.103029
0.103221
0.10342
0.103626
0.103841
0.104063
0.104294
0.104534
0.104781
0.105038
0.105304
0.105578
0.105862
0.106155
0.106458
0.10677
0.107092
0.107424
0.107766
0.108118
0.10848
0.108853
0.109235
0.109628
0.110031
0.110444
0.110867
0.1113
0.111744
0.112197
0.11266
0.113132
0.113614
0.114106
0.114606
0.115115
0.115632
0.116157
0.116689
0.117229
0.117776
0.118329
0.118888
0.119452
0.120021
0.120594
0.121171
0.12175
0.122332
0.122916
0.1235
0.124085
0.124669
0.125252
0.125834
0.126412
0.126988
0.12756
0.128127
0.128688
0.129244
0.129793
0.130334
0.130868
0.131393
0.131909
0.132416
0.132912
0.133398
0.133873
0.134337
0.134788
0.135228
0.135655
0.136069
0.136471
0.136859
0.137235
0.137597
0.137945
0.13828
0.138601
0.138909
0.139203
0.139484
0.139752
0.140006
0.140248
0.140476
0.140692
0.140895
0.141085
0.141264
0.14143
0.141585
0.141729
0.141861
0.141982
0.142093
0.142194
0.142284
0.142365
0.142436
0.142499
0.142552
0.142597
0.142633
0.142662
0.142682
0.142696
0.142702
0.142701
0.142694
0.14268
0.142661
0.142635
0.142604
0.142568
0.142527
0.142481
0.14243
0.142375
0.142315
0.142252
0.142185
0.142114
0.142041
0.141963
0.141883
0.141801
0.141715
0.141627
0.141537
0.141444
0.14135
0.141253
0.141155
0.141055
0.140954
0.140852
0.140748
0.140643
0.140536
0.140429
0.140322
0.140213
0.140104
0.139994
0.139883
0.139772
0.139661
0.13955
0.139438
0.139326
0.139214
0.139102
0.13899
0.138878
0.138766
0.138654
0.138543
0.138431
0.13832
0.138209
0.138099
0.137989
0.137879
0.13777
0.137661
0.137552
0.137444
0.137337
0.13723
0.137123
0.137018
0.136912
0.136807
0.136703
0.1366
0.136497
0.136394
0.136292
0.136191
0.136091
0.135991
0.135891
0.135793
0.135695
0.135597
0.1355
0.135404
0.135309
0.135214
0.135119
0.135026
0.134933
0.13484
0.134748
0.134657
0.134567
0.134477
0.134387
0.134298
0.13421
0.134123
0.134036
0.133949
0.133863
0.133778
0.133693
0.133609
0.133525
0.133442
0.133359
0.133277
0.133195
0.133114
0.133033
0.132953
0.132874
0.132794
0.132716
0.132637
0.13256
0.132482
0.132405
0.132329
0.132253
0.132177
0.132102
0.132027
0.131953
0.131879
0.131806
0.131732
0.13166
0.131587
0.131515
0.131444
0.131372
0.131301
0.131231
0.131161
0.131091
0.131021
0.130952
0.130883
0.130814
0.130746
0.130678
0.130611
0.130543
0.130476
0.13041
0.130343
0.130277
0.130211
0.130146
0.13008
0.130015
0.129951
0.129886
0.129822
0.129758
0.129695
0.129631
0.129568
0.129506
0.129443
0.129381
0.129319
0.129257
0.129196
0.129134
0.129073
0.129013
0.128952
0.128892
0.128832
0.128772
0.128713
0.128654
0.128595
0.128537
0.128478
0.12842
0.128362
0.128305
0.128248
0.128191
0.128134
0.128078
0.128022
0.127966
0.12791
0.127855
0.1278
0.127746
0.127692
0.127638
0.127584
0.127531
0.127478
0.127426
0.127373
0.127322
0.12727
0.127219
0.127169
0.127118
0.127069
0.127019
0.12697
0.126922
0.126874
0.126826
0.126779
0.126733
0.126687
0.126642
0.126597
0.126552
0.126509
0.126465
0.126423
0.126381
0.12634
0.126299
0.126259
0.12622
0.126182
0.126144
0.126107
0.126071
0.126035
0.126001
0.125967
0.125935
0.125903
0.125872
0.125842
0.125813
0.125785
0.125758
0.125732
0.125708
0.125684
0.125661
0.12564
0.12562
0.125601
0.125583
0.125566
0.125551
0.125537
0.125524
0.125513
0.125503
0.125494
0.125486
0.12548
0.125475
0.12547
0.12547
0.1
0.100003
0.10001
0.100021
0.100035
0.100054
0.100077
0.100104
0.100135
0.10017
0.10021
0.100254
0.100302
0.100355
0.100412
0.100474
0.100541
0.100612
0.100688
0.100769
0.100856
0.100947
0.101044
0.101146
0.101253
0.101366
0.101484
0.101609
0.101739
0.101875
0.102018
0.102167
0.102323
0.102485
0.102654
0.10283
0.103013
0.103204
0.103402
0.103608
0.103822
0.104044
0.104274
0.104512
0.10476
0.105016
0.105281
0.105555
0.105838
0.106131
0.106433
0.106746
0.107067
0.107399
0.107741
0.108093
0.108455
0.108828
0.10921
0.109604
0.110007
0.110421
0.110845
0.111279
0.111723
0.112178
0.112642
0.113116
0.1136
0.114093
0.114595
0.115105
0.115625
0.116152
0.116687
0.11723
0.117779
0.118335
0.118897
0.119464
0.120036
0.120612
0.121192
0.121775
0.122361
0.122948
0.123536
0.124124
0.124712
0.125298
0.125883
0.126465
0.127044
0.127619
0.128189
0.128754
0.129313
0.129865
0.130409
0.130945
0.131473
0.131991
0.1325
0.132998
0.133486
0.133962
0.134427
0.13488
0.135321
0.135749
0.136164
0.136566
0.136955
0.13733
0.137692
0.13804
0.138375
0.138696
0.139003
0.139297
0.139577
0.139844
0.140097
0.140337
0.140564
0.140779
0.14098
0.14117
0.141347
0.141512
0.141665
0.141807
0.141938
0.142057
0.142167
0.142265
0.142354
0.142433
0.142503
0.142563
0.142615
0.142658
0.142692
0.142719
0.142738
0.142749
0.142754
0.142752
0.142743
0.142727
0.142706
0.142679
0.142646
0.142608
0.142565
0.142517
0.142465
0.142408
0.142347
0.142282
0.142213
0.142141
0.142066
0.141987
0.141906
0.141821
0.141734
0.141645
0.141553
0.141459
0.141363
0.141265
0.141166
0.141064
0.140962
0.140858
0.140752
0.140646
0.140538
0.14043
0.140321
0.140211
0.1401
0.139989
0.139877
0.139765
0.139652
0.139539
0.139426
0.139313
0.1392
0.139086
0.138973
0.13886
0.138746
0.138633
0.13852
0.138408
0.138295
0.138183
0.138071
0.13796
0.137849
0.137738
0.137628
0.137518
0.137409
0.1373
0.137192
0.137085
0.136977
0.136871
0.136765
0.136659
0.136554
0.13645
0.136347
0.136243
0.136141
0.136039
0.135938
0.135838
0.135738
0.135638
0.13554
0.135442
0.135344
0.135248
0.135151
0.135056
0.134961
0.134867
0.134773
0.13468
0.134588
0.134496
0.134405
0.134314
0.134225
0.134135
0.134046
0.133958
0.133871
0.133784
0.133697
0.133611
0.133526
0.133441
0.133357
0.133273
0.13319
0.133107
0.133025
0.132943
0.132862
0.132781
0.132701
0.132621
0.132542
0.132463
0.132385
0.132307
0.132229
0.132152
0.132076
0.131999
0.131924
0.131848
0.131774
0.131699
0.131625
0.131551
0.131478
0.131405
0.131332
0.13126
0.131188
0.131117
0.131046
0.130975
0.130905
0.130834
0.130765
0.130695
0.130626
0.130557
0.130489
0.130421
0.130353
0.130286
0.130218
0.130151
0.130085
0.130018
0.129952
0.129887
0.129821
0.129756
0.129691
0.129627
0.129562
0.129498
0.129435
0.129371
0.129308
0.129245
0.129182
0.12912
0.129058
0.128996
0.128934
0.128873
0.128812
0.128751
0.12869
0.12863
0.12857
0.12851
0.128451
0.128392
0.128333
0.128274
0.128216
0.128158
0.1281
0.128043
0.127985
0.127929
0.127872
0.127816
0.12776
0.127704
0.127649
0.127594
0.127539
0.127484
0.12743
0.127377
0.127323
0.12727
0.127218
0.127166
0.127114
0.127062
0.127011
0.126961
0.12691
0.126861
0.126811
0.126762
0.126714
0.126666
0.126619
0.126572
0.126525
0.12648
0.126434
0.12639
0.126345
0.126302
0.126259
0.126217
0.126175
0.126134
0.126094
0.126054
0.126015
0.125977
0.12594
0.125903
0.125868
0.125833
0.125799
0.125766
0.125734
0.125702
0.125672
0.125643
0.125615
0.125587
0.125561
0.125536
0.125512
0.125489
0.125468
0.125447
0.125428
0.12541
0.125393
0.125378
0.125363
0.12535
0.125339
0.125328
0.125319
0.125312
0.125305
0.1253
0.125296
0.125296
0.1
0.100003
0.10001
0.100021
0.100035
0.100054
0.100076
0.100103
0.100134
0.100169
0.100208
0.100252
0.1003
0.100352
0.100409
0.10047
0.100536
0.100607
0.100683
0.100764
0.100849
0.10094
0.101036
0.101137
0.101244
0.101356
0.101474
0.101597
0.101727
0.101862
0.102004
0.102152
0.102307
0.102468
0.102636
0.102812
0.102994
0.103184
0.103381
0.103586
0.103799
0.10402
0.10425
0.104487
0.104734
0.104989
0.105254
0.105527
0.10581
0.106102
0.106404
0.106716
0.107038
0.107369
0.107711
0.108063
0.108425
0.108798
0.109181
0.109575
0.109979
0.110393
0.110818
0.111253
0.111699
0.112155
0.112621
0.113096
0.113582
0.114077
0.114581
0.115094
0.115616
0.116146
0.116685
0.11723
0.117783
0.118342
0.118907
0.119478
0.120054
0.120634
0.121218
0.121805
0.122394
0.122985
0.123577
0.12417
0.124762
0.125353
0.125942
0.126528
0.127111
0.12769
0.128264
0.128832
0.129394
0.12995
0.130497
0.131037
0.131567
0.132088
0.132599
0.1331
0.13359
0.134068
0.134535
0.134989
0.135431
0.13586
0.136276
0.136679
0.137068
0.137443
0.137805
0.138153
0.138488
0.138808
0.139115
0.139408
0.139687
0.139952
0.140205
0.140443
0.140669
0.140882
0.141082
0.141269
0.141445
0.141608
0.141759
0.141899
0.142028
0.142146
0.142253
0.142349
0.142436
0.142513
0.14258
0.142639
0.142688
0.142729
0.142761
0.142786
0.142803
0.142812
0.142815
0.14281
0.142799
0.142782
0.142758
0.142729
0.142694
0.142654
0.142609
0.142559
0.142505
0.142446
0.142383