# vtk DataFile Version 3.0
LBM Fluid Grid
ASCII
DATASET STRUCTURED_POINTS
DIMENSIONS 400 150 1
ORIGIN 0 0 0
SPACING 1 1 1
POINT_DATA 60000
SCALARS VelocityMagnitude double 1
LOOKUP_TABLE default
0.1
0.100014
0.100038
0.100072
0.100114
0.100162
0.100216
0.100274
0.100335
0.100396
0.100459
0.100522
0.100584
0.100647
0.100709
0.100771
0.100834
0.100898
0.100965
0.101034
0.101107
0.101184
0.101266
0.101354
0.101449
0.101551
0.10166
0.101777
0.101901
0.102034
0.102175
0.102324
0.102481
0.102646
0.102819
0.102999
0.103187
0.103382
0.103584
0.103794
0.10401
0.104234
0.104464
0.104703
0.104948
0.105201
0.105463
0.105732
0.106009
0.106296
0.106591
0.106895
0.107209
0.107532
0.107865
0.108208
0.108562
0.108925
0.109299
0.109684
0.110078
0.110484
0.110899
0.111325
0.11176
0.112206
0.112661
0.113125
0.113599
0.114081
0.114573
0.115072
0.11558
0.116095
0.116617
0.117146
0.117681
0.118222
0.118769
0.11932
0.119877
0.120437
0.121
0.121566
0.122135
0.122705
0.123277
0.123848
0.12442
0.12499
0.12556
0.126127
0.126691
0.127251
0.127808
0.128359
0.128905
0.129445
0.129979
0.130505
0.131023
0.131532
0.132032
0.132523
0.133004
0.133474
0.133934
0.134382
0.134819
0.135244
0.135656
0.136056
0.136444
0.136818
0.13718
0.137529
0.137864
0.138186
0.138496
0.138792
0.139075
0.139345
0.139602
0.139847
0.140078
0.140298
0.140505
0.140699
0.140882
0.141054
0.141213
0.141362
0.141499
0.141626
0.141742
0.141849
0.141945
0.142031
0.142108
0.142176
0.142235
0.142286
0.142328
0.142362
0.142389
0.142407
0.142419
0.142424
0.142422
0.142414
0.142399
0.142379
0.142353
0.142321
0.142285
0.142243
0.142197
0.142146
0.142091
0.142032
0.141969
0.141903
0.141833
0.14176
0.141684
0.141605
0.141523
0.141439
0.141352
0.141264
0.141173
0.14108
0.140985
0.140889
0.140792
0.140692
0.140592
0.140491
0.140388
0.140284
0.14018
0.140074
0.139968
0.139862
0.139755
0.139647
0.139539
0.139431
0.139322
0.139213
0.139104
0.138995
0.138886
0.138777
0.138668
0.138559
0.13845
0.138342
0.138233
0.138125
0.138017
0.13791
0.137803
0.137696
0.137589
0.137483
0.137378
0.137272
0.137168
0.137064
0.13696
0.136857
0.136754
0.136652
0.13655
0.136449
0.136348
0.136248
0.136149
0.13605
0.135951
0.135853
0.135756
0.135659
0.135563
0.135468
0.135372
0.135278
0.135184
0.13509
0.134998
0.134905
0.134813
0.134722
0.134631
0.134541
0.134451
0.134362
0.134273
0.134185
0.134097
0.13401
0.133923
0.133837
0.133751
0.133666
0.133581
0.133497
0.133413
0.133329
0.133246
0.133163
0.133081
0.132999
0.132918
0.132837
0.132756
0.132676
0.132596
0.132516
0.132437
0.132358
0.13228
0.132201
0.132124
0.132046
0.131969
0.131892
0.131816
0.131739
0.131664
0.131588
0.131513
0.131438
0.131363
0.131289
0.131214
0.13114
0.131067
0.130994
0.13092
0.130848
0.130775
0.130703
0.130631
0.130559
0.130487
0.130416
0.130344
0.130273
0.130203
0.130132
0.130062
0.129991
0.129921
0.129852
0.129782
0.129713
0.129643
0.129574
0.129505
0.129436
0.129368
0.129299
0.129231
0.129163
0.129095
0.129027
0.128959
0.128891
0.128823
0.128756
0.128689
0.128621
0.128554
0.128487
0.12842
0.128353
0.128286
0.128219
0.128153
0.128086
0.12802
0.127953
0.127887
0.127821
0.127754
0.127688
0.127622
0.127556
0.12749
0.127425
0.127359
0.127293
0.127228
0.127162
0.127097
0.127032
0.126967
0.126902
0.126837
0.126773
0.126708
0.126644
0.12658
0.126516
0.126453
0.126389
0.126326
0.126263
0.126201
0.126139
0.126077
0.126015
0.125954
0.125893
0.125833
0.125773
0.125713
0.125654
0.125595
0.125537
0.12548
0.125423
0.125367
0.125311
0.125257
0.125203
0.125149
0.125097
0.125045
0.124995
0.124945
0.124896
0.124848
0.124802
0.124756
0.124712
0.124669
0.124627
0.124587
0.124548
0.124511
0.124475
0.12444
0.124408
0.124377
0.124348
0.12432
0.124295
0.124271
0.12425
0.12423
0.124213
0.124198
0.124185
0.124174
0.124165
0.124158
0.124158
0.1
0.100014
0.100038
0.100072
0.100114
0.100162
0.100216
0.100274
0.100334
0.100396
0.100459
0.100521
0.100584
0.100646
0.100708
0.100771
0.100834
0.100898
0.100964
0.101033
0.101106
0.101183
0.101265
0.101353
0.101448
0.10155
0.101659
0.101776
0.1019
0.102033
0.102174
0.102323
0.10248
0.102645
0.102818
0.102998
0.103185
0.10338
0.103582
0.103792
0.104008
0.104232
0.104462
0.104701
0.104946
0.105199
0.10546
0.10573
0.106007
0.106293
0.106588
0.106893
0.107206
0.10753
0.107863
0.108206
0.108559
0.108923
0.109297
0.109682
0.110076
0.110482
0.110897
0.111323
0.111758
0.112204
0.112659
0.113124
0.113598
0.11408
0.114572
0.115071
0.115579
0.116094
0.116617
0.117146
0.117681
0.118223
0.11877
0.119322
0.119878
0.120438
0.121002
0.121569
0.122138
0.122708
0.12328
0.123852
0.124424
0.124995
0.125564
0.126131
0.126696
0.127257
0.127813
0.128365
0.128912
0.129452
0.129985
0.130512
0.13103
0.131539
0.13204
0.132531
0.133012
0.133483
0.133942
0.134391
0.134827
0.135252
0.135665
0.136065
0.136452
0.136827
0.137189
0.137537
0.137873
0.138195
0.138504
0.1388
0.139083
0.139353
0.139611
0.139855
0.140086
0.140306
0.140512
0.140707
0.14089
0.141061
0.141221
0.141369
0.141506
0.141633
0.141749
0.141855
0.141951
0.142037
0.142114
0.142182
0.142241
0.142291
0.142333
0.142367
0.142394
0.142412
0.142424
0.142429
0.142427
0.142418
0.142403
0.142383
0.142357
0.142325
0.142288
0.142247
0.1422
0.142149
0.142094
0.142035
0.141972
0.141906
0.141836
0.141762
0.141686
0.141607
0.141525
0.141441
0.141354
0.141265
0.141174
0.141081
0.140987
0.14089
0.140793
0.140693
0.140593
0.140491
0.140388
0.140285
0.14018
0.140075
0.139968
0.139862
0.139754
0.139647
0.139539
0.13943
0.139321
0.139212
0.139103
0.138994
0.138885
0.138776
0.138667
0.138558
0.138449
0.13834
0.138231
0.138123
0.138015
0.137908
0.1378
0.137693
0.137587
0.137481
0.137375
0.13727
0.137165
0.137061
0.136957
0.136853
0.13675
0.136648
0.136546
0.136445
0.136344
0.136244
0.136145
0.136046
0.135947
0.135849
0.135752
0.135655
0.135559
0.135463
0.135368
0.135273
0.135179
0.135085
0.134992
0.1349
0.134808
0.134716
0.134625
0.134535
0.134445
0.134356
0.134267
0.134179
0.134091
0.134004
0.133917
0.13383
0.133744
0.133659
0.133574
0.133489
0.133405
0.133322
0.133239
0.133156
0.133073
0.132991
0.13291
0.132829
0.132748
0.132667
0.132587
0.132508
0.132428
0.13235
0.132271
0.132193
0.132115
0.132037
0.13196
0.131883
0.131806
0.13173
0.131654
0.131579
0.131503
0.131428
0.131353
0.131279
0.131205
0.131131
0.131057
0.130983
0.13091
0.130837
0.130765
0.130692
0.13062
0.130548
0.130476
0.130405
0.130334
0.130263
0.130192
0.130121
0.130051
0.12998
0.12991
0.12984
0.129771
0.129701
0.129632
0.129563
0.129494
0.129425
0.129356
0.129288
0.129219
0.129151
0.129083
0.129015
0.128947
0.128879
0.128811
0.128744
0.128676
0.128609
0.128542
0.128475
0.128408
0.128341
0.128274
0.128207
0.12814
0.128074
0.128007
0.12794
0.127874
0.127808
0.127742
0.127675
0.127609
0.127543
0.127477
0.127412
0.127346
0.12728
0.127215
0.127149
0.127084
0.127019
0.126954
0.126889
0.126824
0.126759
0.126695
0.126631
0.126567
0.126503
0.126439
0.126376
0.126313
0.12625
0.126187
0.126125
0.126063
0.126001
0.12594
0.125879
0.125819
0.125759
0.125699
0.12564
0.125581
0.125523
0.125466
0.125409
0.125353
0.125297
0.125243
0.125188
0.125135
0.125083
0.125031
0.12498
0.124931
0.124882
0.124834
0.124788
0.124742
0.124698
0.124655
0.124613
0.124573
0.124534
0.124496
0.12446
0.124426
0.124393
0.124362
0.124333
0.124306
0.12428
0.124256
0.124235
0.124215
0.124198
0.124183
0.12417
0.124159
0.12415
0.124143
0.124143
0.1
0.100014
0.100038
0.100072
0.100113
0.100162
0.100216
0.100273
0.100334
0.100395
0.100458
0.10052
0.100583
0.100645
0.100707
0.100769
0.100832
0.100896
0.100962
0.101031
0.101104
0.101181
0.101263
0.101351
0.101446
0.101547
0.101656
0.101773
0.101897
0.10203
0.102171
0.102319
0.102476
0.102641
0.102813
0.102993
0.103181
0.103375
0.103577
0.103786
0.104003
0.104226
0.104457
0.104694
0.10494
0.105193
0.105454
0.105723
0.106
0.106286
0.106581
0.106886
0.107199
0.107523
0.107856
0.108199
0.108552
0.108916
0.10929
0.109675
0.11007
0.110475
0.110891
0.111317
0.111753
0.112199
0.112654
0.113119
0.113594
0.114077
0.114569
0.115069
0.115577
0.116093
0.116616
0.117146
0.117682
0.118225
0.118772
0.119325
0.119882
0.120443
0.121008
0.121576
0.122146
0.122717
0.12329
0.123863
0.124435
0.125007
0.125578
0.126146
0.126711
0.127273
0.127831
0.128383
0.128931
0.129472
0.130006
0.130533
0.131051
0.131562
0.132063
0.132554
0.133036
0.133507
0.133967
0.134415
0.134852
0.135277
0.13569
0.136091
0.136478
0.136853
0.137215
0.137563
0.137899
0.138221
0.13853
0.138826
0.139109
0.139378
0.139635
0.139879
0.140111
0.140329
0.140536
0.14073
0.140913
0.141083
0.141243
0.141391
0.141527
0.141654
0.141769
0.141875
0.14197
0.142056
0.142133
0.1422
0.142258
0.142308
0.14235
0.142383
0.142409
0.142427
0.142439
0.142443
0.14244
0.142431
0.142416
0.142395
0.142369
0.142336
0.142299
0.142257
0.14221
0.142159
0.142104
0.142044
0.141981
0.141914
0.141843
0.14177
0.141693
0.141613
0.141531
0.141446
0.141359
0.14127
0.141179
0.141085
0.14099
0.140894
0.140796
0.140696
0.140595
0.140493
0.14039
0.140286
0.140181
0.140075
0.139969
0.139861
0.139754
0.139646
0.139537
0.139428
0.139319
0.13921
0.139101
0.138991
0.138882
0.138772
0.138662
0.138553
0.138444
0.138335
0.138226
0.138117
0.138009
0.137901
0.137793
0.137686
0.137579
0.137473
0.137367
0.137261
0.137156
0.137051
0.136947
0.136843
0.13674
0.136638
0.136535
0.136434
0.136333
0.136232
0.136132
0.136033
0.135934
0.135836
0.135738
0.135641
0.135544
0.135448
0.135353
0.135258
0.135163
0.135069
0.134976
0.134883
0.134791
0.134699
0.134608
0.134517
0.134427
0.134338
0.134248
0.13416
0.134072
0.133984
0.133897
0.13381
0.133724
0.133638
0.133553
0.133468
0.133384
0.1333
0.133216
0.133133
0.13305
0.132968
0.132886
0.132805
0.132724
0.132643
0.132563
0.132483
0.132403
0.132324
0.132245
0.132167
0.132088
0.132011
0.131933
0.131856
0.131779
0.131702
0.131626
0.13155
0.131475
0.131399
0.131324
0.13125
0.131175
0.131101
0.131027
0.130953
0.13088
0.130807
0.130734
0.130661
0.130589
0.130517
0.130445
0.130373
0.130301
0.13023
0.130159
0.130088
0.130018
0.129947
0.129877
0.129807
0.129737
0.129667
0.129598
0.129528
0.129459
0.12939
0.129321
0.129252
0.129184
0.129115
0.129047
0.128979
0.128911
0.128843
0.128775
0.128707
0.12864
0.128572
0.128505
0.128437
0.12837
0.128303
0.128236
0.128169
0.128102
0.128036
0.127969
0.127902
0.127836
0.127769
0.127703
0.127637
0.12757
0.127504
0.127438
0.127372
0.127306
0.127241
0.127175
0.127109
0.127044
0.126979
0.126914
0.126849
0.126784
0.126719
0.126654
0.12659
0.126526
0.126462
0.126398
0.126335
0.126272
0.126209
0.126146
0.126084
0.126021
0.12596
0.125898
0.125837
0.125777
0.125717
0.125657
0.125598
0.125539
0.125481
0.125424
0.125367
0.125311
0.125255
0.1252
0.125146
0.125093
0.12504
0.124988
0.124938
0.124888
0.124839
0.124791
0.124744
0.124699
0.124655
0.124612
0.12457
0.124529
0.12449
0.124453
0.124417
0.124382
0.12435
0.124318
0.124289
0.124262
0.124236
0.124213
0.124191
0.124172
0.124154
0.124139
0.124126
0.124115
0.124106
0.124099
0.124099
0.1
0.100014
0.100038
0.100071
0.100113
0.100162
0.100215
0.100273
0.100332
0.100394
0.100456
0.100519
0.100581
0.100643
0.100704
0.100766
0.100829
0.100893
0.100959
0.101028
0.1011
0.101177
0.101259
0.101347
0.101441
0.101543
0.101651
0.101768
0.101892
0.102024
0.102165
0.102313
0.10247
0.102634
0.102806
0.102986
0.103173
0.103367
0.103569
0.103778
0.103993
0.104216
0.104447
0.104684
0.104929
0.105182
0.105443
0.105712
0.105989
0.106275
0.10657
0.106874
0.107188
0.107511
0.107844
0.108187
0.108541
0.108905
0.109279
0.109664
0.110059
0.110465
0.110881
0.111307
0.111744
0.11219
0.112646
0.113112
0.113587
0.114071
0.114564
0.115065
0.115574
0.116091
0.116615
0.117146
0.117684
0.118227
0.118776
0.119331
0.119889
0.120452
0.121018
0.121587
0.122159
0.122732
0.123306
0.12388
0.124455
0.125028
0.1256
0.12617
0.126737
0.1273
0.127859
0.128413
0.128962
0.129504
0.13004
0.130568
0.131087
0.131599
0.132101
0.132593
0.133076
0.133547
0.134008
0.134457
0.134895
0.13532
0.135733
0.136134
0.136521
0.136896
0.137258
0.137606
0.137942
0.138264
0.138573
0.138868
0.139151
0.13942
0.139677
0.13992
0.140151
0.140369
0.140575
0.140769
0.140951
0.141121
0.141279
0.141426
0.141563
0.141688
0.141803
0.141908
0.142002
0.142087
0.142163
0.14223
0.142287
0.142336
0.142377
0.14241
0.142435
0.142452
0.142463
0.142466
0.142463
0.142453
0.142437
0.142415
0.142388
0.142355
0.142317
0.142275
0.142227
0.142175
0.142119
0.142058
0.141994
0.141927
0.141856
0.141781
0.141704
0.141624
0.141541
0.141456
0.141368
0.141278
0.141186
0.141092
0.140996
0.140899
0.1408
0.1407
0.140598
0.140496
0.140392
0.140287
0.140182
0.140075
0.139968
0.139861
0.139752
0.139644
0.139535
0.139425
0.139316
0.139206
0.139096
0.138986
0.138875
0.138765
0.138655
0.138545
0.138435
0.138326
0.138216
0.138107
0.137998
0.13789
0.137782
0.137674
0.137566
0.137459
0.137353
0.137246
0.137141
0.137036
0.136931
0.136827
0.136723
0.13662
0.136517
0.136415
0.136313
0.136212
0.136112
0.136012
0.135912
0.135813
0.135715
0.135617
0.13552
0.135424
0.135328
0.135232
0.135137
0.135043
0.134949
0.134855
0.134763
0.13467
0.134579
0.134487
0.134397
0.134307
0.134217
0.134128
0.134039
0.133951
0.133863
0.133776
0.133689
0.133603
0.133517
0.133432
0.133347
0.133262
0.133178
0.133095
0.133012
0.132929
0.132847
0.132765
0.132683
0.132602
0.132521
0.132441
0.132361
0.132281
0.132202
0.132123
0.132044
0.131966
0.131888
0.13181
0.131733
0.131656
0.131579
0.131503
0.131427
0.131351
0.131276
0.131201
0.131126
0.131051
0.130977
0.130903
0.130829
0.130755
0.130682
0.130609
0.130536
0.130464
0.130391
0.130319
0.130248
0.130176
0.130104
0.130033
0.129962
0.129892
0.129821
0.129751
0.12968
0.12961
0.12954
0.129471
0.129401
0.129332
0.129263
0.129194
0.129125
0.129056
0.128987
0.128919
0.128851
0.128782
0.128714
0.128646
0.128578
0.128511
0.128443
0.128375
0.128308
0.128241
0.128173
0.128106
0.128039
0.127972
0.127905
0.127838
0.127771
0.127705
0.127638
0.127572
0.127505
0.127439
0.127373
0.127307
0.127241
0.127175
0.127109
0.127043
0.126977
0.126912
0.126847
0.126781
0.126716
0.126652
0.126587
0.126522
0.126458
0.126394
0.12633
0.126266
0.126203
0.12614
0.126077
0.126015
0.125952
0.12589
0.125829
0.125768
0.125707
0.125647
0.125587
0.125528
0.125469
0.125411
0.125353
0.125296
0.12524
0.125184
0.125129
0.125075
0.125021
0.124969
0.124917
0.124866
0.124816
0.124767
0.124719
0.124673
0.124627
0.124583
0.124539
0.124498
0.124457
0.124418
0.12438
0.124344
0.12431
0.124277
0.124246
0.124216
0.124189
0.124163
0.12414
0.124118
0.124098
0.124081
0.124066
0.124053
0.124042
0.124033
0.124026
0.124026
0.1
0.100013
0.100037
0.100071
0.100113
0.100161
0.100214
0.100271
0.100331
0.100392
0.100454
0.100516
0.100578
0.10064
0.100701
0.100763
0.100825
0.100889
0.100955
0.101023
0.101095
0.101172
0.101254
0.101341
0.101435
0.101536
0.101645
0.101761
0.101885
0.102017
0.102157
0.102305
0.102461
0.102625
0.102796
0.102975
0.103162
0.103356
0.103557
0.103765
0.10398
0.104203
0.104433
0.10467
0.104915
0.105167
0.105428
0.105696
0.105973
0.106259
0.106554
0.106857
0.107171
0.107494
0.107827
0.108171
0.108524
0.108889
0.109263
0.109648
0.110044
0.11045
0.110867
0.111294
0.111731
0.112178
0.112635
0.113102
0.113578
0.114063
0.114557
0.115059
0.11557
0.116088
0.116614
0.117147
0.117686
0.118231
0.118782
0.119338
0.119899
0.120464
0.121032
0.121603
0.122177
0.122752
0.123329
0.123905
0.124482
0.125058
0.125632
0.126204
0.126773
0.127338
0.127899
0.128455
0.129006
0.12955
0.130087
0.130617
0.131138
0.131651
0.132154
0.132648
0.133131
0.133604
0.134065
0.134515
0.134954
0.13538
0.135793
0.136194
0.136582
0.136957
0.137319
0.137667
0.138002
0.138324
0.138633
0.138928
0.13921
0.139479
0.139734
0.139977
0.140207
0.140425
0.14063
0.140823
0.141004
0.141173
0.14133
0.141476
0.141612
0.141736
0.14185
0.141953
0.142047
0.142131
0.142206
0.142271
0.142328
0.142376
0.142415
0.142447
0.142471
0.142487
0.142496
0.142499
0.142494
0.142483
0.142467
0.142444
0.142415
0.142381
0.142342
0.142299
0.14225
0.142197
0.14214
0.142078
0.142013
0.141945
0.141873
0.141797
0.141719
0.141638
0.141554
0.141468
0.141379
0.141288
0.141196
0.141101
0.141004
0.140906
0.140806
0.140705
0.140603
0.140499
0.140395
0.140289
0.140183
0.140075
0.139968
0.139859
0.13975
0.13964
0.13953
0.13942
0.13931
0.139199
0.139088
0.138977
0.138866
0.138755
0.138645
0.138534
0.138423
0.138313
0.138202
0.138093
0.137983
0.137873
0.137764
0.137656
0.137548
0.13744
0.137332
0.137225
0.137119
0.137013
0.136907
0.136802
0.136698
0.136594
0.13649
0.136387
0.136285
0.136183
0.136082
0.135981
0.135881
0.135781
0.135682
0.135584
0.135486
0.135389
0.135292
0.135195
0.1351
0.135004
0.13491
0.134816
0.134722
0.134629
0.134537
0.134445
0.134353
0.134262
0.134172
0.134082
0.133993
0.133904
0.133815
0.133727
0.13364
0.133553
0.133467
0.13338
0.133295
0.13321
0.133125
0.133041
0.132957
0.132873
0.13279
0.132708
0.132626
0.132544
0.132462
0.132381
0.132301
0.13222
0.13214
0.132061
0.131981
0.131903
0.131824
0.131746
0.131668
0.13159
0.131513
0.131436
0.131359
0.131283
0.131207
0.131131
0.131056
0.130981
0.130906
0.130831
0.130757
0.130683
0.130609
0.130536
0.130462
0.130389
0.130316
0.130244
0.130172
0.130099
0.130028
0.129956
0.129884
0.129813
0.129742
0.129671
0.129601
0.12953
0.12946
0.12939
0.12932
0.12925
0.12918
0.129111
0.129042
0.128972
0.128903
0.128835
0.128766
0.128697
0.128629
0.12856
0.128492
0.128424
0.128356
0.128288
0.12822
0.128153
0.128085
0.128018
0.12795
0.127883
0.127816
0.127748
0.127681
0.127614
0.127547
0.127481
0.127414
0.127347
0.127281
0.127214
0.127148
0.127082
0.127016
0.12695
0.126884
0.126818
0.126753
0.126687
0.126622
0.126557
0.126492
0.126427
0.126363
0.126298
0.126234
0.12617
0.126107
0.126043
0.12598
0.125918
0.125855
0.125793
0.125732
0.12567
0.12561
0.125549
0.125489
0.12543
0.125371
0.125312
0.125255
0.125197
0.125141
0.125085
0.12503
0.124975
0.124922
0.124869
0.124817
0.124766
0.124716
0.124667
0.124619
0.124572
0.124526
0.124482
0.124438
0.124396
0.124356
0.124316
0.124279
0.124242
0.124208
0.124175
0.124144
0.124114
0.124086
0.124061
0.124037
0.124015
0.123996
0.123978
0.123963
0.12395
0.123939
0.12393
0.123923
0.123923
0.1
0.100013
0.100037
0.100071
0.100112
0.10016
0.100213
0.10027
0.100329
0.10039
0.100451
0.100513
0.100574
0.100636
0.100697
0.100758
0.10082
0.100883
0.100949
0.101017
0.101089
0.101165
0.101247
0.101334
0.101427
0.101528
0.101636
0.101752
0.101875
0.102007
0.102146
0.102294
0.102449
0.102612
0.102783
0.102962
0.103148
0.103341
0.103541
0.103749
0.103964
0.104186
0.104415
0.104652
0.104896
0.105148
0.105408
0.105676
0.105952
0.106238
0.106532
0.106836
0.10715
0.107473
0.107806
0.108149
0.108503
0.108868
0.109243
0.109628
0.110024
0.110431
0.110848
0.111276
0.111714
0.112162
0.11262
0.113088
0.113566
0.114052
0.114548
0.115052
0.115564
0.116085
0.116612
0.117147
0.117689
0.118236
0.11879
0.119348
0.119912
0.120479
0.12105
0.121624
0.1222
0.122778
0.123358
0.123937
0.124517
0.125096
0.125673
0.126247
0.126819
0.127387
0.127951
0.128509
0.129062
0.129609
0.130148
0.13068
0.131203
0.131718
0.132223
0.132718
0.133203
0.133677
0.13414
0.134591
0.13503
0.135456
0.13587
0.136272
0.13666
0.137035
0.137397
0.137745
0.13808
0.138402
0.13871
0.139004
0.139286
0.139554
0.139809
0.140051
0.14028
0.140496
0.1407
0.140892
0.141072
0.141239
0.141396
0.141541
0.141674
0.141797
0.14191
0.142012
0.142104
0.142187
0.14226
0.142324
0.142379
0.142426
0.142464
0.142494
0.142516
0.142531
0.142539
0.14254
0.142534
0.142522
0.142504
0.14248
0.14245
0.142415
0.142374
0.142329
0.142279
0.142225
0.142166
0.142104
0.142037
0.141967
0.141894
0.141818
0.141738
0.141656
0.141571
0.141483
0.141393
0.141301
0.141207
0.141111
0.141014
0.140914
0.140813
0.140711
0.140608
0.140503
0.140397
0.14029
0.140183
0.140075
0.139966
0.139856
0.139746
0.139635
0.139524
0.139413
0.139301
0.13919
0.139078
0.138966
0.138854
0.138742
0.13863
0.138518
0.138406
0.138295
0.138183
0.138072
0.137962
0.137851
0.137741
0.137632
0.137522
0.137413
0.137305
0.137197
0.137089
0.136982
0.136876
0.13677
0.136664
0.136559
0.136455
0.136351
0.136248
0.136145
0.136042
0.135941
0.13584
0.135739
0.135639
0.135539
0.135441
0.135342
0.135244
0.135147
0.13505
0.134954
0.134859
0.134764
0.134669
0.134575
0.134482
0.134389
0.134296
0.134204
0.134113
0.134022
0.133932
0.133842
0.133753
0.133664
0.133576
0.133488
0.1334
0.133313
0.133227
0.133141
0.133055
0.13297
0.132885
0.132801
0.132717
0.132634
0.132551
0.132468
0.132386
0.132304
0.132222
0.132141
0.13206
0.13198
0.1319
0.13182
0.131741
0.131662
0.131583
0.131505
0.131427
0.131349
0.131272
0.131195
0.131118
0.131042
0.130965
0.13089
0.130814
0.130739
0.130664
0.130589
0.130514
0.13044
0.130366
0.130293
0.130219
0.130146
0.130073
0.13
0.129928
0.129855
0.129783
0.129712
0.12964
0.129568
0.129497
0.129426
0.129355
0.129285
0.129214
0.129144
0.129074
0.129004
0.128934
0.128864
0.128795
0.128726
0.128656
0.128587
0.128518
0.128449
0.128381
0.128312
0.128244
0.128175
0.128107
0.128039
0.127971
0.127903
0.127835
0.127767
0.1277
0.127632
0.127565
0.127497
0.12743
0.127363
0.127296
0.127229
0.127162
0.127095
0.127029
0.126962
0.126896
0.126829
0.126763
0.126697
0.126631
0.126566
0.1265
0.126435
0.126369
0.126304
0.12624
0.126175
0.126111
0.126046
0.125983
0.125919
0.125856
0.125793
0.12573
0.125668
0.125606
0.125545
0.125484
0.125423
0.125363
0.125303
0.125244
0.125185
0.125127
0.12507
0.125013
0.124957
0.124902
0.124847
0.124793
0.12474
0.124688
0.124637
0.124587
0.124538
0.124489
0.124442
0.124396
0.124352
0.124308
0.124266
0.124225
0.124186
0.124148
0.124111
0.124077
0.124044
0.124012
0.123983
0.123955
0.123929
0.123905
0.123883
0.123864
0.123846
0.123831
0.123818
0.123807
0.123798
0.123791
0.123791
0.1
0.100013
0.100037
0.10007
0.100111
0.100159
0.100211
0.100268
0.100326
0.100387
0.100448
0.100509
0.10057
0.100631
0.100691
0.100752
0.100814
0.100877
0.100942
0.10101
0.101081
0.101157
0.101238
0.101325
0.101418
0.101518
0.101626
0.101741
0.101863
0.101994
0.102133
0.10228
0.102435
0.102597
0.102767
0.102945
0.10313
0.103323
0.103522
0.103729
0.103943
0.104165
0.104393
0.104629
0.104873
0.105124
0.105383
0.105651
0.105927
0.106212
0.106506
0.10681
0.107123
0.107446
0.10778
0.108123
0.108477
0.108842
0.109217
0.109603
0.11
0.110407
0.110826
0.111254
0.111693
0.112143
0.112602
0.113072
0.113551
0.114039
0.114537
0.115043
0.115557
0.11608
0.11661
0.117147
0.117692
0.118242
0.118799
0.11936
0.119927
0.120497
0.121072
0.121649
0.122229
0.122811
0.123393
0.123977
0.12456
0.125142
0.125722
0.1263
0.126876
0.127447
0.128014
0.128576
0.129131
0.129681
0.130223
0.130757
0.131283
0.1318
0.132307
0.132804
0.133291
0.133766
0.13423
0.134683
0.135123
0.13555
0.135965
0.136367
0.136755
0.137131
0.137492
0.137841
0.138175
0.138496
0.138804
0.139098
0.139379
0.139646
0.1399
0.140141
0.140368
0.140584
0.140786
0.140977
0.141155
0.141321
0.141476
0.141619
0.141751
0.141872
0.141983
0.142084
0.142174
0.142255
0.142326
0.142388
0.142442
0.142487
0.142523
0.142551
0.142572
0.142585
0.142591
0.14259
0.142583
0.142569
0.142549
0.142523
0.142491
0.142454
0.142412
0.142366
0.142314
0.142258
0.142198
0.142134
0.142066
0.141994
0.141919
0.141841
0.14176
0.141676
0.14159
0.141501
0.141409
0.141316
0.14122
0.141123
0.141024
0.140923
0.140821
0.140717
0.140612
0.140506
0.140399
0.140291
0.140182
0.140072
0.139962
0.139851
0.139739
0.139627
0.139515
0.139402
0.139289
0.139176
0.139063
0.13895
0.138836
0.138723
0.13861
0.138497
0.138384
0.138271
0.138158
0.138046
0.137934
0.137822
0.137711
0.1376
0.13749
0.13738
0.13727
0.137161
0.137052
0.136944
0.136836
0.136728
0.136622
0.136515
0.13641
0.136305
0.1362
0.136096
0.135992
0.135889
0.135787
0.135685
0.135584
0.135483
0.135383
0.135284
0.135185
0.135086
0.134988
0.134891
0.134794
0.134698
0.134602
0.134507
0.134412
0.134318
0.134225
0.134132
0.134039
0.133947
0.133856
0.133765
0.133674
0.133585
0.133495
0.133406
0.133318
0.13323
0.133142
0.133055
0.132968
0.132882
0.132796
0.132711
0.132626
0.132541
0.132457
0.132374
0.13229
0.132207
0.132125
0.132043
0.131961
0.13188
0.131799
0.131718
0.131638
0.131558
0.131478
0.131399
0.13132
0.131241
0.131163
0.131085
0.131007
0.13093
0.130853
0.130776
0.1307
0.130624
0.130548
0.130473
0.130397
0.130322
0.130248
0.130173
0.130099
0.130025
0.129951
0.129878
0.129804
0.129731
0.129659
0.129586
0.129514
0.129442
0.12937
0.129298
0.129227
0.129155
0.129084
0.129013
0.128942
0.128872
0.128801
0.128731
0.128661
0.128591
0.128521
0.128452
0.128382
0.128313
0.128243
0.128174
0.128105
0.128036
0.127968
0.127899
0.12783
0.127762
0.127694
0.127625
0.127557
0.127489
0.127421
0.127354
0.127286
0.127218
0.127151
0.127083
0.127016
0.126949
0.126882
0.126815
0.126748
0.126681
0.126615
0.126548
0.126482
0.126416
0.12635
0.126284
0.126219
0.126154
0.126088
0.126024
0.125959
0.125894
0.12583
0.125766
0.125703
0.12564
0.125577
0.125514
0.125452
0.12539
0.125329
0.125268
0.125208
0.125148
0.125088
0.12503
0.124971
0.124914
0.124857
0.1248
0.124745
0.12469
0.124636
0.124583
0.12453
0.124479
0.124429
0.124379
0.124331
0.124283
0.124237
0.124192
0.124149
0.124106
0.124065
0.124026
0.123988
0.123951
0.123916
0.123883
0.123851
0.123821
0.123794
0.123768
0.123744
0.123722
0.123702
0.123684
0.123669
0.123656
0.123645
0.123636
0.123629
0.123629
0.1
0.100013
0.100037
0.100069
0.10011
0.100157
0.100209
0.100265
0.100323
0.100383
0.100444
0.100504
0.100565
0.100625
0.100685
0.100745
0.100807
0.100869
0.100934
0.101001
0.101072
0.101147
0.101228
0.101314
0.101407
0.101506
0.101613
0.101727
0.10185
0.10198
0.102118
0.102264
0.102418
0.102579
0.102749
0.102925
0.10311
0.103301
0.1035
0.103706
0.103919
0.104139
0.104367
0.104602
0.104845
0.105096
0.105354
0.105621
0.105897
0.106182
0.106476
0.106779
0.107092
0.107415
0.107748
0.108092
0.108446
0.108811
0.109187
0.109573
0.109971
0.110379
0.110798
0.111228
0.111669
0.112119
0.112581
0.113052
0.113533
0.114023
0.114523
0.115031
0.115548
0.116074
0.116607
0.117147
0.117695
0.118249
0.118809
0.119374
0.119944
0.120519
0.121097
0.121679
0.122263
0.122848
0.123435
0.124023
0.12461
0.125196
0.125781
0.126363
0.126942
0.127518
0.128088
0.128654
0.129213
0.129766
0.130311
0.130849
0.131378
0.131897
0.132407
0.132906
0.133395
0.133872
0.134338
0.134792
0.135233
0.135661
0.136077
0.136479
0.136868
0.137244
0.137606
0.137954
0.138288
0.138609
0.138916
0.139209
0.139488
0.139754
0.140007
0.140247
0.140473
0.140687
0.140888
0.141076
0.141253
0.141417
0.14157
0.141711
0.141842
0.141961
0.14207
0.142168
0.142256
0.142335
0.142404
0.142464
0.142515
0.142558
0.142592
0.142618
0.142637
0.142648
0.142652
0.142649
0.142639
0.142623
0.142601
0.142573
0.142539
0.142501
0.142457
0.142408
0.142354
0.142296
0.142234
0.142168
0.142098
0.142025
0.141948
0.141868
0.141785
0.141699
0.141611
0.14152
0.141427
0.141332
0.141234
0.141135
0.141034
0.140932
0.140828
0.140722
0.140616
0.140508
0.140399
0.140289
0.140179
0.140067
0.139955
0.139843
0.139729
0.139616
0.139502
0.139388
0.139273
0.139158
0.139044
0.138929
0.138814
0.138699
0.138584
0.138469
0.138355
0.138241
0.138126
0.138013
0.137899
0.137786
0.137673
0.137561
0.137449
0.137337
0.137226
0.137115
0.137005
0.136895
0.136786
0.136677
0.136569
0.136461
0.136354
0.136247
0.136141
0.136036
0.135931
0.135826
0.135722
0.135619
0.135516
0.135414
0.135313
0.135212
0.135111
0.135011
0.134912
0.134813
0.134715
0.134618
0.134521
0.134424
0.134328
0.134233
0.134138
0.134043
0.13395
0.133856
0.133763
0.133671
0.133579
0.133488
0.133397
0.133307
0.133217
0.133128
0.133039
0.132951
0.132863
0.132775
0.132688
0.132602
0.132515
0.13243
0.132344
0.13226
0.132175
0.132091
0.132007
0.131924
0.131841
0.131759
0.131677
0.131595
0.131513
0.131432
0.131352
0.131271
0.131191
0.131112
0.131032
0.130953
0.130875
0.130797
0.130718
0.130641
0.130563
0.130486
0.13041
0.130333
0.130257
0.130181
0.130105
0.13003
0.129955
0.12988
0.129805
0.129731
0.129657
0.129583
0.129509
0.129436
0.129363
0.12929
0.129217
0.129145
0.129073
0.129001
0.128929
0.128857
0.128785
0.128714
0.128643
0.128572
0.128501
0.128431
0.12836
0.12829
0.12822
0.12815
0.12808
0.12801
0.12794
0.127871
0.127801
0.127732
0.127663
0.127594
0.127525
0.127456
0.127388
0.127319
0.127251
0.127182
0.127114
0.127046
0.126978
0.12691
0.126842
0.126775
0.126707
0.12664
0.126573
0.126506
0.126439
0.126372
0.126305
0.126239
0.126172
0.126106
0.12604
0.125975
0.125909
0.125844
0.125779
0.125714
0.12565
0.125585
0.125521
0.125458
0.125395
0.125332
0.125269
0.125207
0.125146
0.125084
0.125024
0.124964
0.124904
0.124845
0.124786
0.124728
0.124671
0.124615
0.124559
0.124504
0.124449
0.124396
0.124343
0.124292
0.124241
0.124191
0.124143
0.124095
0.124049
0.124004
0.12396
0.123917
0.123876
0.123836
0.123798
0.123761
0.123726
0.123692
0.123661
0.123631
0.123603
0.123577
0.123552
0.12353
0.12351
0.123493
0.123477
0.123464
0.123453
0.123444
0.123437
0.123437
0.1
0.100013
0.100036
0.100069
0.100109
0.100156
0.100207
0.100262
0.10032
0.100379
0.100439
0.100499
0.100559
0.100618
0.100678
0.100738
0.100798
0.10086
0.100924
0.100991
0.101062
0.101136
0.101216
0.101302
0.101394
0.101493
0.101599
0.101712
0.101834
0.101963
0.1021
0.102245
0.102398
0.102559
0.102727
0.102903
0.103086
0.103276
0.103474
0.103679
0.103891
0.10411
0.104337
0.104571
0.104813
0.105063
0.105321
0.105587
0.105862
0.106146
0.10644
0.106743
0.107055
0.107378
0.107712
0.108055
0.10841
0.108775
0.109151
0.109539
0.109937
0.110346
0.110766
0.111197
0.111639
0.112092
0.112555
0.113028
0.113511
0.114004
0.114506
0.115018
0.115538
0.116066
0.116603
0.117147
0.117698
0.118256
0.11882
0.11939
0.119964
0.120543
0.121126
0.121712
0.122301
0.122892
0.123484
0.124076
0.124668
0.12526
0.125849
0.126436
0.12702
0.1276
0.128175
0.128745
0.129308
0.129865
0.130414
0.130955
0.131487
0.13201
0.132522
0.133024
0.133516
0.133995
0.134463
0.134918
0.135361
0.13579
0.136207
0.13661
0.136999
0.137375
0.137737
0.138084
0.138418
0.138738
0.139044
0.139336
0.139615
0.13988
0.140131
0.140369
0.140594
0.140806
0.141005
0.141191
0.141366
0.141528
0.141678
0.141817
0.141945
0.142062
0.142169
0.142265
0.14235
0.142427
0.142493
0.142551
0.142599
0.142639
0.142671
0.142695
0.142711
0.142719
0.142721
0.142715
0.142703
0.142685
0.14266
0.14263
0.142594
0.142552
0.142506
0.142455
0.142399
0.142339