# vtk DataFile Version 3.0
LBM Fluid Grid
ASCII
DATASET STRUCTURED_POINTS
DIMENSIONS 400 150 1
ORIGIN 0 0 0
SPACING 1 1 1
POINT_DATA 60000
SCALARS VelocityMagnitude double 1
LOOKUP_TABLE default
0.1
0.100003
0.10001
0.100021
0.100036
0.100055
0.100079
0.100107
0.100139
0.100175
0.100216
0.100261
0.100311
0.100365
0.100423
0.100487
0.100555
0.100627
0.100705
0.100788
0.100875
0.100968
0.101066
0.10117
0.101279
0.101393
0.101513
0.10164
0.101772
0.10191
0.102055
0.102206
0.102364
0.102528
0.102699
0.102878
0.103063
0.103256
0.103457
0.103665
0.103881
0.104105
0.104338
0.104578
0.104828
0.105086
0.105352
0.105628
0.105913
0.106207
0.10651
0.106823
0.107146
0.107478
0.10782
0.108172
0.108534
0.108905
0.109287
0.109679
0.11008
0.110492
0.110914
0.111345
0.111786
0.112237
0.112697
0.113166
0.113645
0.114133
0.114629
0.115133
0.115646
0.116166
0.116693
0.117228
0.117769
0.118316
0.118868
0.119426
0.119988
0.120554
0.121124
0.121696
0.12227
0.122847
0.123424
0.124001
0.124578
0.125153
0.125727
0.126299
0.126867
0.127432
0.127992
0.128547
0.129096
0.129639
0.130175
0.130703
0.131223
0.131734
0.132236
0.132728
0.133211
0.133682
0.134142
0.134591
0.135029
0.135454
0.135867
0.136267
0.136655
0.13703
0.137392
0.13774
0.138076
0.138398
0.138707
0.139003
0.139285
0.139555
0.139811
0.140055
0.140286
0.140504
0.14071
0.140903
0.141085
0.141255
0.141413
0.14156
0.141696
0.141821
0.141935
0.14204
0.142134
0.142219
0.142294
0.14236
0.142417
0.142465
0.142505
0.142538
0.142562
0.142579
0.142589
0.142592
0.142589
0.142579
0.142563
0.142541
0.142514
0.142481
0.142443
0.1424
0.142353
0.142301
0.142245
0.142185
0.142122
0.142054
0.141984
0.14191
0.141833
0.141753
0.141671
0.141586
0.141499
0.14141
0.141318
0.141225
0.14113
0.141033
0.140935
0.140835
0.140734
0.140632
0.140529
0.140425
0.14032
0.140214
0.140107
0.14
0.139893
0.139785
0.139676
0.139568
0.139459
0.13935
0.13924
0.139131
0.139022
0.138913
0.138804
0.138695
0.138586
0.138477
0.138369
0.138261
0.138153
0.138046
0.137939
0.137832
0.137726
0.13762
0.137515
0.13741
0.137306
0.137202
0.137099
0.136996
0.136894
0.136793
0.136692
0.136591
0.136491
0.136392
0.136294
0.136196
0.136099
0.136002
0.135906
0.13581
0.135716
0.135621
0.135528
0.135435
0.135343
0.135251
0.13516
0.135069
0.13498
0.13489
0.134802
0.134714
0.134626
0.134539
0.134453
0.134367
0.134282
0.134197
0.134113
0.13403
0.133947
0.133865
0.133783
0.133702
0.133621
0.13354
0.133461
0.133381
0.133303
0.133224
0.133146
0.133069
0.132992
0.132916
0.13284
0.132764
0.132689
0.132615
0.13254
0.132467
0.132393
0.13232
0.132248
0.132175
0.132104
0.132032
0.131961
0.13189
0.13182
0.13175
0.131681
0.131611
0.131542
0.131474
0.131405
0.131338
0.13127
0.131203
0.131136
0.131069
0.131003
0.130937
0.130871
0.130805
0.13074
0.130675
0.130611
0.130546
0.130482
0.130418
0.130355
0.130292
0.130229
0.130166
0.130103
0.130041
0.129979
0.129917
0.129856
0.129795
0.129734
0.129673
0.129612
0.129552
0.129492
0.129432
0.129373
0.129314
0.129255
0.129196
0.129137
0.129079
0.129021
0.128963
0.128906
0.128848
0.128791
0.128735
0.128678
0.128622
0.128566
0.12851
0.128455
0.1284
0.128345
0.12829
0.128236
0.128182
0.128128
0.128075
0.128021
0.127969
0.127916
0.127864
0.127812
0.127761
0.12771
0.127659
0.127609
0.127559
0.127509
0.12746
0.127411
0.127363
0.127315
0.127267
0.12722
0.127174
0.127127
0.127082
0.127037
0.126992
0.126948
0.126905
0.126862
0.12682
0.126778
0.126737
0.126696
0.126657
0.126618
0.126579
0.126542
0.126505
0.126469
0.126433
0.126399
0.126365
0.126332
0.1263
0.126269
0.126239
0.12621
0.126182
0.126155
0.126129
0.126103
0.126079
0.126056
0.126035
0.126014
0.125994
0.125976
0.125959
0.125943
0.125928
0.125914
0.125902
0.125891
0.125881
0.125873
0.125865
0.125859
0.125854
0.12585
0.12585
0.1
0.100003
0.10001
0.100021
0.100036
0.100055
0.100079
0.100107
0.100139
0.100175
0.100216
0.100261
0.100311
0.100365
0.100424
0.100487
0.100555
0.100628
0.100705
0.100788
0.100876
0.100969
0.101067
0.10117
0.101279
0.101394
0.101514
0.10164
0.101773
0.101911
0.102056
0.102207
0.102365
0.102529
0.102701
0.102879
0.103065
0.103258
0.103458
0.103667
0.103883
0.104107
0.10434
0.10458
0.10483
0.105088
0.105354
0.10563
0.105915
0.106209
0.106513
0.106825
0.107148
0.10748
0.107822
0.108174
0.108536
0.108907
0.109289
0.109681
0.110082
0.110494
0.110915
0.111347
0.111788
0.112238
0.112698
0.113168
0.113646
0.114134
0.11463
0.115134
0.115646
0.116166
0.116693
0.117228
0.117768
0.118315
0.118867
0.119425
0.119987
0.120552
0.121122
0.121694
0.122268
0.122844
0.12342
0.123997
0.124574
0.125149
0.125723
0.126294
0.126862
0.127426
0.127986
0.128541
0.12909
0.129632
0.130168
0.130696
0.131216
0.131727
0.132229
0.132721
0.133203
0.133674
0.134134
0.134583
0.13502
0.135445
0.135858
0.136259
0.136646
0.137021
0.137383
0.137732
0.138067
0.138389
0.138698
0.138994
0.139277
0.139546
0.139803
0.140047
0.140278
0.140496
0.140702
0.140896
0.141078
0.141247
0.141406
0.141553
0.141689
0.141814
0.141929
0.142033
0.142128
0.142212
0.142288
0.142354
0.142411
0.14246
0.1425
0.142532
0.142557
0.142574
0.142584
0.142588
0.142584
0.142575
0.142559
0.142537
0.14251
0.142477
0.142439
0.142397
0.14235
0.142298
0.142242
0.142182
0.142119
0.142052
0.141981
0.141908
0.141831
0.141751
0.141669
0.141584
0.141497
0.141408
0.141317
0.141223
0.141128
0.141032
0.140934
0.140834
0.140733
0.140631
0.140528
0.140424
0.140319
0.140214
0.140107
0.14
0.139893
0.139785
0.139677
0.139568
0.139459
0.13935
0.139241
0.139132
0.139023
0.138914
0.138805
0.138696
0.138587
0.138479
0.138371
0.138263
0.138155
0.138048
0.137941
0.137834
0.137728
0.137623
0.137517
0.137413
0.137309
0.137205
0.137102
0.136999
0.136897
0.136796
0.136695
0.136595
0.136495
0.136396
0.136298
0.1362
0.136103
0.136006
0.13591
0.135815
0.13572
0.135626
0.135533
0.13544
0.135348
0.135256
0.135165
0.135075
0.134985
0.134896
0.134807
0.134719
0.134632
0.134545
0.134459
0.134374
0.134288
0.134204
0.13412
0.134037
0.133954
0.133872
0.13379
0.133709
0.133628
0.133548
0.133468
0.133389
0.13331
0.133232
0.133154
0.133077
0.133
0.132924
0.132848
0.132773
0.132698
0.132623
0.132549
0.132475
0.132402
0.132329
0.132257
0.132184
0.132113
0.132041
0.13197
0.1319
0.13183
0.13176
0.13169
0.131621
0.131552
0.131484
0.131416
0.131348
0.13128
0.131213
0.131146
0.131079
0.131013
0.130947
0.130881
0.130816
0.130751
0.130686
0.130622
0.130557
0.130493
0.13043
0.130366
0.130303
0.13024
0.130177
0.130115
0.130053
0.129991
0.129929
0.129868
0.129807
0.129746
0.129685
0.129625
0.129564
0.129504
0.129445
0.129385
0.129326
0.129267
0.129208
0.12915
0.129092
0.129034
0.128976
0.128919
0.128861
0.128804
0.128748
0.128691
0.128635
0.128579
0.128523
0.128468
0.128413
0.128358
0.128303
0.128249
0.128195
0.128142
0.128088
0.128035
0.127982
0.12793
0.127878
0.127826
0.127775
0.127724
0.127673
0.127623
0.127573
0.127523
0.127474
0.127425
0.127377
0.127329
0.127281
0.127234
0.127188
0.127142
0.127096
0.127051
0.127007
0.126963
0.126919
0.126877
0.126834
0.126793
0.126752
0.126711
0.126672
0.126633
0.126594
0.126557
0.12652
0.126484
0.126448
0.126414
0.12638
0.126348
0.126316
0.126285
0.126255
0.126225
0.126197
0.12617
0.126144
0.126119
0.126095
0.126072
0.12605
0.126029
0.12601
0.125991
0.125974
0.125958
0.125944
0.12593
0.125918
0.125907
0.125897
0.125888
0.125881
0.125875
0.12587
0.125865
0.125865
0.1
0.100003
0.10001
0.100021
0.100036
0.100055
0.100079
0.100107
0.100139
0.100175
0.100216
0.100261
0.100311
0.100365
0.100423
0.100487
0.100555
0.100627
0.100705
0.100788
0.100875
0.100968
0.101066
0.10117
0.101279
0.101393
0.101513
0.10164
0.101772
0.10191
0.102055
0.102206
0.102364
0.102528
0.102699
0.102878
0.103063
0.103256
0.103457
0.103665
0.103881
0.104105
0.104338
0.104578
0.104828
0.105086
0.105352
0.105628
0.105913
0.106207
0.10651
0.106823
0.107146
0.107478
0.10782
0.108172
0.108534
0.108905
0.109287
0.109679
0.11008
0.110492
0.110914
0.111345
0.111786
0.112237
0.112697
0.113166
0.113645
0.114133
0.114629
0.115133
0.115646
0.116166
0.116693
0.117228
0.117769
0.118316
0.118868
0.119426
0.119988
0.120554
0.121124
0.121696
0.12227
0.122847
0.123424
0.124001
0.124578
0.125153
0.125727
0.126299
0.126867
0.127432
0.127992
0.128547
0.129096
0.129639
0.130175
0.130703
0.131223
0.131734
0.132236
0.132728
0.133211
0.133682
0.134142
0.134591
0.135029
0.135454
0.135867
0.136267
0.136655
0.13703
0.137392
0.13774
0.138076
0.138398
0.138707
0.139003
0.139285
0.139555
0.139811
0.140055
0.140286
0.140504
0.14071
0.140903
0.141085
0.141255
0.141413
0.14156
0.141696
0.141821
0.141935
0.14204
0.142134
0.142219
0.142294
0.14236
0.142417
0.142465
0.142505
0.142538
0.142562
0.142579
0.142589
0.142592
0.142589
0.142579
0.142563
0.142541
0.142514
0.142481
0.142443
0.1424
0.142353
0.142301
0.142245
0.142185
0.142122
0.142054
0.141984
0.14191
0.141833
0.141753
0.141671
0.141586
0.141499
0.14141
0.141318
0.141225
0.14113
0.141033
0.140935
0.140835
0.140734
0.140632
0.140529
0.140425
0.14032
0.140214
0.140107
0.14
0.139893
0.139785
0.139676
0.139568
0.139459
0.13935
0.13924
0.139131
0.139022
0.138913
0.138804
0.138695
0.138586
0.138477
0.138369
0.138261
0.138153
0.138046
0.137939
0.137832
0.137726
0.13762
0.137515
0.13741
0.137306
0.137202
0.137099
0.136996
0.136894
0.136793
0.136692
0.136591
0.136491
0.136392
0.136294
0.136196
0.136099
0.136002
0.135906
0.13581
0.135716
0.135621
0.135528
0.135435
0.135343
0.135251
0.13516
0.135069
0.13498
0.13489
0.134802
0.134714
0.134626
0.134539
0.134453
0.134367
0.134282
0.134197
0.134113
0.13403
0.133947
0.133865
0.133783
0.133702
0.133621
0.13354
0.133461
0.133381
0.133303
0.133224
0.133146
0.133069
0.132992
0.132916
0.13284
0.132764
0.132689
0.132615
0.13254
0.132467
0.132393
0.13232
0.132248
0.132175
0.132104
0.132032
0.131961
0.13189
0.13182
0.13175
0.131681
0.131611
0.131542
0.131474
0.131405
0.131338
0.13127
0.131203
0.131136
0.131069
0.131003
0.130937
0.130871
0.130805
0.13074
0.130675
0.130611
0.130546
0.130482
0.130418
0.130355
0.130292
0.130229
0.130166
0.130103
0.130041
0.129979
0.129917
0.129856
0.129795
0.129734
0.129673
0.129612
0.129552
0.129492
0.129432
0.129373
0.129314
0.129255
0.129196
0.129137
0.129079
0.129021
0.128963
0.128906
0.128848
0.128791
0.128735
0.128678
0.128622
0.128566
0.12851
0.128455
0.1284
0.128345
0.12829
0.128236
0.128182
0.128128
0.128075
0.128021
0.127969
0.127916
0.127864
0.127812
0.127761
0.12771
0.127659
0.127609
0.127559
0.127509
0.12746
0.127411
0.127363
0.127315
0.127267
0.12722
0.127174
0.127127
0.127082
0.127037
0.126992
0.126948
0.126905
0.126862
0.12682
0.126778
0.126737
0.126696
0.126657
0.126618
0.126579
0.126542
0.126505
0.126469
0.126433
0.126399
0.126365
0.126332
0.1263
0.126269
0.126239
0.12621
0.126182
0.126155
0.126129
0.126103
0.126079
0.126056
0.126035
0.126014
0.125994
0.125976
0.125959
0.125943
0.125928
0.125914
0.125902
0.125891
0.125881
0.125873
0.125865
0.125859
0.125854
0.12585
0.12585
0.1
0.100003
0.10001
0.100021
0.100036
0.100055
0.100079
0.100107
0.100139
0.100175
0.100216
0.100261
0.10031
0.100364
0.100423
0.100486
0.100554
0.100626
0.100704
0.100786
0.100874
0.100966
0.101064
0.101168
0.101276
0.101391
0.101511
0.101637
0.101769
0.101907
0.102052
0.102203
0.10236
0.102524
0.102695
0.102874
0.103059
0.103252
0.103452
0.10366
0.103876
0.1041
0.104332
0.104573
0.104822
0.10508
0.105346
0.105622
0.105906
0.1062
0.106504
0.106817
0.107139
0.107471
0.107813
0.108165
0.108527
0.108899
0.10928
0.109672
0.110074
0.110486
0.110908
0.111339
0.111781
0.112232
0.112692
0.113162
0.113641
0.114129
0.114626
0.115131
0.115644
0.116165
0.116693
0.117228
0.11777
0.118317
0.118871
0.119429
0.119992
0.120559
0.12113
0.121703
0.122278
0.122855
0.123433
0.124012
0.124589
0.125166
0.125741
0.126313
0.126883
0.127448
0.128009
0.128565
0.129115
0.129658
0.130195
0.130724
0.131244
0.131756
0.132259
0.132752
0.133234
0.133706
0.134167
0.134616
0.135054
0.135479
0.135892
0.136293
0.136681
0.137056
0.137417
0.137766
0.138102
0.138424
0.138732
0.139028
0.13931
0.13958
0.139836
0.140079
0.14031
0.140528
0.140733
0.140927
0.141108
0.141277
0.141435
0.141582
0.141717
0.141842
0.141956
0.142059
0.142153
0.142237
0.142312
0.142377
0.142434
0.142482
0.142522
0.142554
0.142578
0.142594
0.142604
0.142606
0.142602
0.142592
0.142576
0.142553
0.142525
0.142492
0.142454
0.142411
0.142363
0.142311
0.142255
0.142194
0.14213
0.142062
0.141991
0.141917
0.14184
0.14176
0.141677
0.141592
0.141504
0.141414
0.141323
0.141229
0.141133
0.141036
0.140938
0.140838
0.140736
0.140634
0.14053
0.140426
0.14032
0.140214
0.140107
0.14
0.139892
0.139784
0.139675
0.139566
0.139457
0.139347
0.139238
0.139128
0.139018
0.138909
0.138799
0.13869
0.138581
0.138472
0.138363
0.138255
0.138147
0.138039
0.137932
0.137825
0.137718
0.137612
0.137507
0.137401
0.137297
0.137193
0.137089
0.136986
0.136884
0.136782
0.136681
0.13658
0.13648
0.13638
0.136282
0.136183
0.136086
0.135989
0.135892
0.135797
0.135701
0.135607
0.135513
0.13542
0.135327
0.135235
0.135144
0.135053
0.134963
0.134873
0.134784
0.134696
0.134608
0.134521
0.134434
0.134348
0.134263
0.134178
0.134093
0.13401
0.133926
0.133844
0.133762
0.13368
0.133599
0.133518
0.133438
0.133359
0.13328
0.133201
0.133123
0.133045
0.132968
0.132891
0.132815
0.132739
0.132664
0.132589
0.132514
0.13244
0.132367
0.132293
0.132221
0.132148
0.132076
0.132004
0.131933
0.131862
0.131791
0.131721
0.131651
0.131582
0.131513
0.131444
0.131375
0.131307
0.131239
0.131172
0.131104
0.131038
0.130971
0.130905
0.130839
0.130773
0.130708
0.130642
0.130578
0.130513
0.130449
0.130385
0.130321
0.130257
0.130194
0.130131
0.130068
0.130006
0.129944
0.129882
0.12982
0.129759
0.129698
0.129637
0.129576
0.129516
0.129455
0.129395
0.129336
0.129276
0.129217
0.129158
0.129099
0.129041
0.128983
0.128925
0.128867
0.12881
0.128752
0.128696
0.128639
0.128582
0.128526
0.12847
0.128415
0.12836
0.128304
0.12825
0.128195
0.128141
0.128087
0.128034
0.12798
0.127927
0.127875
0.127823
0.127771
0.127719
0.127668
0.127617
0.127566
0.127516
0.127467
0.127417
0.127368
0.12732
0.127272
0.127224
0.127177
0.12713
0.127084
0.127038
0.126993
0.126948
0.126904
0.126861
0.126818
0.126775
0.126734
0.126692
0.126652
0.126612
0.126573
0.126534
0.126497
0.12646
0.126423
0.126388
0.126353
0.12632
0.126287
0.126255
0.126224
0.126193
0.126164
0.126136
0.126108
0.126082
0.126057
0.126033
0.12601
0.125988
0.125967
0.125947
0.125929
0.125912
0.125896
0.125881
0.125867
0.125855
0.125844
0.125834
0.125825
0.125818
0.125812
0.125806
0.125802
0.125802
0.1
0.100003
0.100009
0.10002
0.100036
0.100055
0.100078
0.100106
0.100138
0.100174
0.100215
0.10026
0.100309
0.100363
0.100421
0.100484
0.100552
0.100624
0.100702
0.100784
0.100871
0.100964
0.101061
0.101164
0.101273
0.101387
0.101507
0.101633
0.101764
0.101902
0.102046
0.102197
0.102354
0.102518
0.102689
0.102867
0.103052
0.103244
0.103444
0.103652
0.103868
0.104091
0.104323
0.104563
0.104812
0.10507
0.105336
0.105611
0.105896
0.10619
0.106493
0.106805
0.107128
0.10746
0.107802
0.108154
0.108516
0.108888
0.10927
0.109662
0.110064
0.110476
0.110898
0.11133
0.111772
0.112223
0.112685
0.113155
0.113635
0.114124
0.114621
0.115127
0.115641
0.116163
0.116692
0.117229
0.117771
0.11832
0.118875
0.119435
0.119999
0.120568
0.12114
0.121714
0.122291
0.12287
0.12345
0.124029
0.124609
0.125187
0.125763
0.126337
0.126908
0.127475
0.128037
0.128595
0.129146
0.129691
0.130229
0.130759
0.13128
0.131793
0.132297
0.132791
0.133274
0.133747
0.134208
0.134658
0.135096
0.135522
0.135935
0.136336
0.136724
0.137099
0.137461
0.137809
0.138145
0.138467
0.138775
0.139071
0.139353
0.139621
0.139877
0.14012
0.14035
0.140568
0.140772
0.140965
0.141146
0.141314
0.141472
0.141617
0.141752
0.141876
0.141989
0.142092
0.142185
0.142268
0.142342
0.142407
0.142463
0.14251
0.142549
0.14258
0.142603
0.142619
0.142628
0.14263
0.142625
0.142614
0.142597
0.142574
0.142545
0.142511
0.142472
0.142428
0.14238
0.142327
0.14227
0.142209
0.142144
0.142076
0.142004
0.141929
0.141851
0.14177
0.141687
0.141601
0.141513
0.141422
0.14133
0.141235
0.141139
0.141042
0.140942
0.140842
0.14074
0.140637
0.140532
0.140427
0.140321
0.140215
0.140107
0.139999
0.139891
0.139782
0.139672
0.139563
0.139453
0.139343
0.139233
0.139123
0.139012
0.138902
0.138792
0.138682
0.138573
0.138463
0.138354
0.138245
0.138136
0.138028
0.13792
0.137812
0.137705
0.137599
0.137492
0.137387
0.137282
0.137177
0.137073
0.136969
0.136866
0.136764
0.136662
0.136561
0.13646
0.13636
0.136261
0.136162
0.136064
0.135966
0.135869
0.135773
0.135677
0.135582
0.135488
0.135394
0.135301
0.135208
0.135116
0.135025
0.134934
0.134844
0.134755
0.134666
0.134577
0.13449
0.134403
0.134316
0.13423
0.134145
0.13406
0.133975
0.133892
0.133808
0.133726
0.133644
0.133562
0.133481
0.1334
0.13332
0.133241
0.133162
0.133083
0.133005
0.132927
0.13285
0.132773
0.132697
0.132621
0.132546
0.132471
0.132396
0.132322
0.132248
0.132175
0.132102
0.13203
0.131958
0.131886
0.131814
0.131743
0.131673
0.131602
0.131532
0.131463
0.131394
0.131325
0.131256
0.131188
0.13112
0.131052
0.130985
0.130918
0.130851
0.130785
0.130719
0.130653
0.130587
0.130522
0.130457
0.130393
0.130328
0.130264
0.1302
0.130137
0.130073
0.13001
0.129947
0.129885
0.129823
0.129761
0.129699
0.129637
0.129576
0.129515
0.129454
0.129394
0.129334
0.129274
0.129214
0.129154
0.129095
0.129036
0.128977
0.128919
0.128861
0.128803
0.128745
0.128687
0.12863
0.128573
0.128517
0.12846
0.128404
0.128348
0.128293
0.128237
0.128182
0.128128
0.128073
0.128019
0.127965
0.127912
0.127859
0.127806
0.127753
0.127701
0.127649
0.127598
0.127547
0.127496
0.127446
0.127396
0.127346
0.127297
0.127248
0.1272
0.127152
0.127105
0.127058
0.127012
0.126966
0.12692
0.126875
0.126831
0.126787
0.126744
0.126702
0.12666
0.126618
0.126578
0.126538
0.126498
0.12646
0.126422
0.126384
0.126348
0.126312
0.126278
0.126244
0.126211
0.126178
0.126147
0.126117
0.126087
0.126059
0.126031
0.126005
0.12598
0.125955
0.125932
0.12591
0.125889
0.125869
0.125851
0.125833
0.125817
0.125802
0.125789
0.125776
0.125765
0.125755
0.125746
0.125739
0.125733
0.125727
0.125723
0.125723
0.1
0.100003
0.100009
0.10002
0.100035
0.100055
0.100078
0.100106
0.100138
0.100174
0.100214
0.100259
0.100308
0.100362
0.10042
0.100482
0.10055
0.100622
0.100699
0.100781
0.100868
0.10096
0.101057
0.10116
0.101268
0.101382
0.101501
0.101626
0.101758
0.101895
0.102039
0.102189
0.102346
0.102509
0.102679
0.102857
0.103041
0.103233
0.103433
0.10364
0.103855
0.104079
0.10431
0.10455
0.104798
0.105056
0.105322
0.105597
0.105881
0.106174
0.106477
0.10679
0.107112
0.107444
0.107786
0.108138
0.1085
0.108872
0.109254
0.109646
0.110049
0.110461
0.110884
0.111317
0.111759
0.112212
0.112674
0.113145
0.113626
0.114116
0.114614
0.115122
0.115637
0.11616
0.116691
0.117229
0.117774
0.118325
0.118881
0.119443
0.120009
0.12058
0.121154
0.121731
0.12231
0.122891
0.123472
0.124054
0.124636
0.125216
0.125795
0.126371
0.126944
0.127513
0.128077
0.128636
0.12919
0.129736
0.130276
0.130808
0.131331
0.131845
0.13235
0.132845
0.133329
0.133803
0.134265
0.134716
0.135155
0.135581
0.135995
0.136396
0.136785
0.13716
0.137521
0.13787
0.138205
0.138527
0.138835
0.13913
0.139412
0.13968
0.139935
0.140177
0.140407
0.140623
0.140827
0.141019
0.141199
0.141366
0.141523
0.141667
0.141801
0.141924
0.142036
0.142138
0.14223
0.142312
0.142385
0.142448
0.142503
0.142549
0.142587
0.142617
0.142639
0.142654
0.142662
0.142662
0.142656
0.142644
0.142626
0.142602
0.142572
0.142537
0.142497
0.142452
0.142403
0.142349
0.142291
0.142229
0.142163
0.142094
0.142021
0.141945
0.141866
0.141785
0.1417
0.141613
0.141524
0.141433
0.141339
0.141244
0.141147
0.141049
0.140948
0.140847
0.140744
0.14064
0.140535
0.140429
0.140322
0.140215
0.140106
0.139998
0.139888
0.139778
0.139668
0.139558
0.139447
0.139336
0.139225
0.139114
0.139003
0.138892
0.138782
0.138671
0.13856
0.13845
0.13834
0.13823
0.138121
0.138012
0.137903
0.137794
0.137687
0.137579
0.137472
0.137366
0.13726
0.137154
0.137049
0.136945
0.136841
0.136738
0.136635
0.136533
0.136432
0.136331
0.136231
0.136131
0.136032
0.135934
0.135836
0.135739
0.135643
0.135547
0.135452
0.135357
0.135263
0.13517
0.135077
0.134985
0.134894
0.134803
0.134713
0.134623
0.134534
0.134445
0.134358
0.13427
0.134184
0.134097
0.134012
0.133927
0.133842
0.133758
0.133675
0.133592
0.13351
0.133428
0.133347
0.133266
0.133186
0.133106
0.133027
0.132948
0.13287
0.132792
0.132714
0.132637
0.132561
0.132485
0.132409
0.132334
0.132259
0.132185
0.132111
0.132037
0.131964
0.131892
0.131819
0.131747
0.131675
0.131604
0.131533
0.131463
0.131393
0.131323
0.131253
0.131184
0.131115
0.131047
0.130979
0.130911
0.130843
0.130776
0.130709
0.130642
0.130576
0.13051
0.130444
0.130379
0.130314
0.130249
0.130184
0.13012
0.130056
0.129992
0.129928
0.129865
0.129802
0.129739
0.129677
0.129615
0.129553
0.129491
0.12943
0.129368
0.129307
0.129247
0.129186
0.129126
0.129066
0.129007
0.128947
0.128888
0.128829
0.12877
0.128712
0.128654
0.128596
0.128539
0.128481
0.128424
0.128367
0.128311
0.128255
0.128199
0.128143
0.128088
0.128033
0.127978
0.127923
0.127869
0.127816
0.127762
0.127709
0.127656
0.127604
0.127551
0.1275
0.127448
0.127397
0.127347
0.127296
0.127247
0.127197
0.127148
0.1271
0.127051
0.127004
0.126957
0.12691
0.126864
0.126818
0.126773
0.126728
0.126684
0.126641
0.126598
0.126556
0.126514
0.126473
0.126433
0.126393
0.126355
0.126316
0.126279
0.126242
0.126207
0.126171
0.126137
0.126104
0.126072
0.12604
0.126009
0.12598
0.125951
0.125923
0.125897
0.125871
0.125847
0.125823
0.125801
0.12578
0.12576
0.125741
0.125724
0.125707
0.125692
0.125678
0.125666
0.125654
0.125644
0.125636
0.125628
0.125622
0.125617
0.125612
0.125612
0.1
0.100003
0.100009
0.10002
0.100035
0.100054
0.100078
0.100105
0.100137
0.100173
0.100213
0.100257
0.100306
0.10036
0.100417
0.10048
0.100547
0.100619
0.100695
0.100777
0.100863
0.100955
0.101052
0.101154
0.101262
0.101375
0.101494
0.101618
0.101749
0.101886
0.102029
0.102179
0.102335
0.102498
0.102667
0.102844
0.103028
0.10322
0.103419
0.103625
0.10384
0.104063
0.104293
0.104533
0.104781
0.105037
0.105303
0.105578
0.105861
0.106155
0.106457
0.10677
0.107092
0.107424
0.107766
0.108117
0.10848
0.108852
0.109234
0.109627
0.11003
0.110443
0.110866
0.111299
0.111743
0.112196
0.112659
0.113132
0.113614
0.114105
0.114606
0.115114
0.115632
0.116157
0.11669
0.11723
0.117777
0.11833
0.118889
0.119453
0.120022
0.120595
0.121172
0.121751
0.122333
0.122917
0.123501
0.124086
0.124671
0.125254
0.125835
0.126414
0.12699
0.127562
0.128129
0.12869
0.129246
0.129795
0.130337
0.13087
0.131396
0.131912
0.132419
0.132915
0.133401
0.133876
0.134339
0.134791
0.135231
0.135658
0.136072
0.136474
0.136862
0.137238
0.1376
0.137948
0.138283
0.138604
0.138912
0.139207
0.139487
0.139755
0.140009
0.140251
0.140479
0.140695
0.140898
0.141088
0.141267
0.141433
0.141588
0.141732
0.141864
0.141985
0.142096
0.142197
0.142287
0.142368
0.142439
0.142501
0.142555
0.142599
0.142636
0.142664
0.142685
0.142698
0.142704
0.142704
0.142696
0.142683
0.142663
0.142638
0.142607
0.14257
0.142529
0.142483
0.142432
0.142377
0.142317
0.142254
0.142187
0.142116
0.142042
0.141965
0.141885
0.141802
0.141717
0.141629
0.141538
0.141446
0.141351
0.141255
0.141157
0.141057
0.140956
0.140853
0.140749
0.140644
0.140538
0.140431
0.140323
0.140214
0.140105
0.139995
0.139884
0.139773
0.139662
0.139551
0.139439
0.139327
0.139215
0.139103
0.138991
0.138879
0.138767
0.138655
0.138543
0.138432
0.138321
0.13821
0.1381
0.137989
0.13788
0.13777
0.137661
0.137553
0.137445
0.137337
0.13723
0.137124
0.137018
0.136913
0.136808
0.136704
0.1366
0.136497
0.136395
0.136293
0.136191
0.136091
0.135991
0.135892
0.135793
0.135695
0.135597
0.135501
0.135404
0.135309
0.135214
0.13512
0.135026
0.134933
0.13484
0.134749
0.134657
0.134567
0.134477
0.134387
0.134299
0.13421
0.134123
0.134036
0.133949
0.133863
0.133778
0.133693
0.133609
0.133525
0.133442
0.133359
0.133277
0.133195
0.133114
0.133033
0.132953
0.132874
0.132794
0.132716
0.132637
0.13256
0.132482
0.132405
0.132329
0.132253
0.132177
0.132102
0.132027
0.131953
0.131879
0.131806
0.131732
0.13166
0.131587
0.131515
0.131444
0.131372
0.131301
0.131231
0.131161
0.131091
0.131021
0.130952
0.130883
0.130814
0.130746
0.130678
0.130611
0.130543
0.130476
0.13041
0.130343
0.130277
0.130211
0.130146
0.13008
0.130015
0.129951
0.129886
0.129822
0.129758
0.129695
0.129631
0.129568
0.129505
0.129443
0.129381
0.129319
0.129257
0.129195
0.129134
0.129073
0.129013
0.128952
0.128892
0.128832
0.128772
0.128713
0.128654
0.128595
0.128536
0.128478
0.12842
0.128362
0.128305
0.128247
0.12819
0.128134
0.128077
0.128021
0.127966
0.12791
0.127855
0.1278
0.127745
0.127691
0.127637
0.127584
0.127531
0.127478
0.127425
0.127373
0.127321
0.12727
0.127219
0.127168
0.127118
0.127068
0.127019
0.12697
0.126921
0.126873
0.126826
0.126779
0.126732
0.126686
0.126641
0.126596
0.126552
0.126508
0.126465
0.126422
0.12638
0.126339
0.126298
0.126258
0.126219
0.126181
0.126143
0.126106
0.12607
0.126035
0.126
0.125967
0.125934
0.125902
0.125871
0.125841
0.125812
0.125784
0.125757
0.125732
0.125707
0.125683
0.125661
0.125639
0.125619
0.1256
0.125582
0.125566
0.12555
0.125536
0.125524
0.125512
0.125502
0.125493
0.125486
0.125479
0.125474
0.12547
0.12547
0.1
0.100003
0.100009
0.10002
0.100035
0.100054
0.100077
0.100104
0.100136
0.100172
0.100211
0.100256
0.100304
0.100357
0.100415
0.100477
0.100543
0.100615
0.100691
0.100772
0.100858
0.100949
0.101045
0.101147
0.101254
0.101366
0.101485
0.101609
0.101739
0.101875
0.102017
0.102166
0.102322
0.102484
0.102653
0.102829
0.103012
0.103203
0.103401
0.103607
0.103821
0.104043
0.104273
0.104512
0.104759
0.105015
0.10528
0.105554
0.105838
0.10613
0.106433
0.106745
0.107067
0.107398
0.10774
0.108092
0.108454
0.108827
0.10921
0.109603
0.110006
0.11042
0.110844
0.111278
0.111723
0.112177
0.112642
0.113116
0.113599
0.114092
0.114595
0.115105
0.115625
0.116152
0.116688
0.11723
0.11778
0.118336
0.118898
0.119465
0.120037
0.120614
0.121194
0.121777
0.122362
0.122949
0.123537
0.124125
0.124713
0.1253
0.125885
0.126467
0.127046
0.127621
0.128191
0.128756
0.129315
0.129867
0.130411
0.130948
0.131475
0.131994
0.132502
0.133001
0.133489
0.133965
0.13443
0.134883
0.135324
0.135752
0.136167
0.136569
0.136958
0.137333
0.137695
0.138043
0.138378
0.138699
0.139006
0.1393
0.13958
0.139847
0.1401
0.14034
0.140568
0.140782
0.140983
0.141173
0.14135
0.141515
0.141668
0.14181
0.14194
0.14206
0.142169
0.142268
0.142357
0.142436
0.142505
0.142566
0.142617
0.14266
0.142695
0.142721
0.14274
0.142752
0.142756
0.142754
0.142745
0.14273
0.142708
0.142681
0.142648
0.14261
0.142567
0.142519
0.142467
0.14241
0.142349
0.142284
0.142215
0.142143
0.142068
0.141989
0.141907
0.141823
0.141736
0.141646
0.141554
0.14146
0.141364
0.141267
0.141167
0.141066
0.140963
0.140859
0.140754
0.140647
0.14054
0.140431
0.140322
0.140212
0.140101
0.13999
0.139878
0.139766
0.139653
0.13954
0.139427
0.139314
0.1392
0.139087
0.138974
0.13886
0.138747
0.138634
0.138521
0.138408
0.138296
0.138184
0.138072
0.137961
0.13785
0.137739
0.137629
0.137519
0.13741
0.137301
0.137193
0.137085
0.136978
0.136871
0.136765
0.13666
0.136555
0.136451
0.136347
0.136244
0.136141
0.13604
0.135938
0.135838
0.135738
0.135639
0.13554
0.135442
0.135345
0.135248
0.135152
0.135056
0.134961
0.134867
0.134773
0.13468
0.134588
0.134496
0.134405
0.134315
0.134225
0.134135
0.134046
0.133958
0.133871
0.133784
0.133697
0.133611
0.133526
0.133441
0.133357
0.133273
0.13319
0.133107
0.133025
0.132943
0.132862
0.132781
0.132701
0.132621
0.132542
0.132463
0.132385
0.132307
0.132229
0.132152
0.132076
0.131999
0.131924
0.131848
0.131773
0.131699
0.131625
0.131551
0.131478
0.131405
0.131332
0.13126
0.131188
0.131117
0.131046
0.130975
0.130904
0.130834
0.130765
0.130695
0.130626
0.130557
0.130489
0.130421
0.130353
0.130285
0.130218
0.130151
0.130085
0.130018
0.129952
0.129887
0.129821
0.129756
0.129691
0.129627
0.129562
0.129498
0.129434
0.129371
0.129308
0.129245
0.129182
0.12912
0.129058
0.128996
0.128934
0.128873
0.128812
0.128751
0.12869
0.12863
0.12857
0.12851
0.128451
0.128392
0.128333
0.128274
0.128216
0.128158
0.1281
0.128042
0.127985
0.127928
0.127872
0.127815
0.127759
0.127704
0.127648
0.127593
0.127538
0.127484
0.12743
0.127376
0.127323
0.12727
0.127217
0.127165
0.127113
0.127062
0.127011
0.12696
0.12691
0.12686
0.126811
0.126762
0.126714
0.126666
0.126618
0.126571
0.126525
0.126479
0.126434
0.126389
0.126345
0.126301
0.126258
0.126216
0.126174
0.126133
0.126093
0.126053
0.126015
0.125977
0.125939
0.125903
0.125867
0.125832
0.125798
0.125765
0.125733
0.125702
0.125671
0.125642
0.125614
0.125587
0.125561
0.125535
0.125511
0.125489
0.125467
0.125447
0.125427
0.125409
0.125392
0.125377
0.125363
0.12535
0.125338
0.125328
0.125319
0.125311
0.125305
0.125299
0.125295
0.125295
0.1
0.100003
0.100009
0.10002
0.100035
0.100054
0.100077
0.100104
0.100135
0.10017
0.10021
0.100254
0.100302
0.100354
0.100411
0.100473
0.100539
0.10061
0.100685
0.100766
0.100851
0.100942
0.101037
0.101138
0.101245
0.101356
0.101474
0.101597
0.101726
0.101862
0.102003
0.102151
0.102306
0.102467
0.102635
0.10281
0.102993
0.103183
0.10338
0.103585
0.103798
0.104019
0.104249
0.104487
0.104733
0.104989
0.105253
0.105526
0.105809
0.106102
0.106403
0.106715
0.107037
0.107368
0.10771
0.108062
0.108424
0.108797
0.10918
0.109574
0.109978
0.110392
0.110817
0.111253
0.111698
0.112154
0.11262
0.113096
0.113582
0.114077
0.114581
0.115094
0.115616
0.116147
0.116685
0.117231
0.117783
0.118343
0.118908
0.119479
0.120055
0.120635
0.121219
0.121806
0.122396
0.122987
0.123579
0.124171
0.124764
0.125355
0.125944
0.12653
0.127113
0.127692
0.128266
0.128834
0.129397
0.129952
0.130499
0.131039
0.13157
0.132091
0.132602
0.133103
0.133593
0.134071
0.134537
0.134992
0.135434
0.135863
0.136279
0.136682
0.137071
0.137446
0.137808
0.138156
0.138491
0.138811
0.139118
0.139411
0.13969
0.139955
0.140208
0.140446
0.140672
0.140885
0.141085
0.141272
0.141448
0.141611
0.141762
0.141902
0.142031
0.142148
0.142256
0.142352
0.142439
0.142516
0.142583
0.142641
0.142691
0.142732
0.142764
0.142789
0.142805
0.142815
0.142817
0.142812
0.142801
0.142784
0.14276
0.142731
0.142696
0.142656
0.142611
0.142561
0.142507
0.142448
0.142385
0.142318
0.142248
0.142174