# vtk DataFile Version 3.0
LBM Fluid Grid
ASCII
DATASET STRUCTURED_POINTS
DIMENSIONS 400 150 1
ORIGIN 0 0 0
SPACING 1 1 1
POINT_DATA 60000
SCALARS VelocityMagnitude double 1
LOOKUP_TABLE default
0.1
0.100003
0.10001
0.100021
0.100037
0.100056
0.10008
0.100108
0.10014
0.100176
0.100217
0.100262
0.100311
0.100365
0.100424
0.100487
0.100555
0.100628
0.100705
0.100788
0.100875
0.100968
0.101067
0.10117
0.101279
0.101394
0.101514
0.101641
0.101773
0.101912
0.102056
0.102208
0.102365
0.10253
0.102701
0.10288
0.103065
0.103258
0.103459
0.103667
0.103883
0.104107
0.10434
0.10458
0.104829
0.105087
0.105354
0.10563
0.105914
0.106208
0.106512
0.106825
0.107147
0.107479
0.107821
0.108173
0.108535
0.108907
0.109288
0.10968
0.110082
0.110493
0.110915
0.111346
0.111787
0.112238
0.112698
0.113167
0.113646
0.114133
0.114629
0.115134
0.115646
0.116166
0.116694
0.117228
0.117769
0.118316
0.118868
0.119426
0.119988
0.120554
0.121124
0.121696
0.12227
0.122846
0.123423
0.124001
0.124577
0.125153
0.125727
0.126298
0.126867
0.127431
0.127991
0.128546
0.129096
0.129638
0.130174
0.130702
0.131222
0.131733
0.132235
0.132728
0.13321
0.133681
0.134142
0.134591
0.135028
0.135453
0.135866
0.136266
0.136654
0.137029
0.137391
0.137739
0.138075
0.138397
0.138706
0.139002
0.139284
0.139554
0.13981
0.140054
0.140285
0.140503
0.140709
0.140903
0.141084
0.141254
0.141412
0.141559
0.141695
0.14182
0.141935
0.142039
0.142133
0.142218
0.142293
0.142359
0.142416
0.142464
0.142505
0.142537
0.142562
0.142579
0.142589
0.142592
0.142588
0.142578
0.142562
0.14254
0.142513
0.14248
0.142443
0.1424
0.142353
0.142301
0.142245
0.142185
0.142121
0.142054
0.141983
0.14191
0.141833
0.141753
0.141671
0.141586
0.141499
0.141409
0.141318
0.141225
0.14113
0.141033
0.140935
0.140835
0.140734
0.140632
0.140529
0.140425
0.14032
0.140214
0.140107
0.14
0.139893
0.139785
0.139676
0.139568
0.139459
0.13935
0.139241
0.139131
0.139022
0.138913
0.138804
0.138695
0.138586
0.138477
0.138369
0.138261
0.138153
0.138046
0.137939
0.137832
0.137726
0.137621
0.137515
0.137411
0.137306
0.137203
0.137099
0.136997
0.136895
0.136793
0.136692
0.136592
0.136492
0.136393
0.136295
0.136197
0.136099
0.136003
0.135907
0.135811
0.135716
0.135622
0.135529
0.135436
0.135344
0.135252
0.135161
0.13507
0.13498
0.134891
0.134803
0.134715
0.134627
0.13454
0.134454
0.134368
0.134283
0.134199
0.134115
0.134031
0.133948
0.133866
0.133784
0.133703
0.133622
0.133542
0.133462
0.133382
0.133304
0.133225
0.133148
0.13307
0.132993
0.132917
0.132841
0.132765
0.13269
0.132616
0.132541
0.132468
0.132394
0.132321
0.132249
0.132176
0.132105
0.132033
0.131962
0.131891
0.131821
0.131751
0.131681
0.131612
0.131543
0.131475
0.131406
0.131338
0.131271
0.131203
0.131136
0.13107
0.131003
0.130937
0.130872
0.130806
0.130741
0.130676
0.130611
0.130547
0.130483
0.130419
0.130355
0.130292
0.130229
0.130166
0.130104
0.130042
0.12998
0.129918
0.129856
0.129795
0.129734
0.129673
0.129613
0.129553
0.129493
0.129433
0.129373
0.129314
0.129255
0.129196
0.129138
0.129079
0.129021
0.128964
0.128906
0.128849
0.128792
0.128735
0.128678
0.128622
0.128566
0.12851
0.128455
0.1284
0.128345
0.12829
0.128236
0.128182
0.128128
0.128075
0.128022
0.127969
0.127916
0.127864
0.127812
0.127761
0.12771
0.127659
0.127609
0.127559
0.127509
0.12746
0.127411
0.127363
0.127315
0.127267
0.12722
0.127174
0.127128
0.127082
0.127037
0.126993
0.126949
0.126905
0.126862
0.12682
0.126778
0.126737
0.126697
0.126657
0.126618
0.12658
0.126542
0.126505
0.126469
0.126434
0.126399
0.126366
0.126333
0.126301
0.12627
0.12624
0.126211
0.126182
0.126155
0.126129
0.126104
0.12608
0.126057
0.126035
0.126014
0.125995
0.125976
0.125959
0.125943
0.125928
0.125915
0.125903
0.125891
0.125882
0.125873
0.125866
0.12586
0.125854
0.12585
0.12585
0.1
0.100003
0.10001
0.100021
0.100037
0.100056
0.10008
0.100108
0.10014
0.100176
0.100217
0.100262
0.100311
0.100365
0.100424
0.100487
0.100555
0.100628
0.100706
0.100788
0.100876
0.100969
0.101067
0.101171
0.10128
0.101395
0.101515
0.101642
0.101774
0.101913
0.102057
0.102209
0.102366
0.102531
0.102702
0.102881
0.103067
0.10326
0.10346
0.103669
0.103885
0.104109
0.104341
0.104582
0.104831
0.105089
0.105356
0.105632
0.105917
0.106211
0.106514
0.106827
0.107149
0.107482
0.107824
0.108175
0.108537
0.108909
0.10929
0.109682
0.110084
0.110495
0.110917
0.111348
0.111789
0.112239
0.1127
0.113169
0.113647
0.114135
0.11463
0.115135
0.115647
0.116167
0.116694
0.117228
0.117769
0.118315
0.118868
0.119425
0.119987
0.120552
0.121122
0.121694
0.122268
0.122844
0.12342
0.123997
0.124574
0.125149
0.125723
0.126294
0.126862
0.127426
0.127986
0.12854
0.129089
0.129632
0.130167
0.130695
0.131215
0.131726
0.132228
0.13272
0.133202
0.133673
0.134133
0.134582
0.135019
0.135445
0.135857
0.136258
0.136645
0.13702
0.137382
0.137731
0.138066
0.138388
0.138697
0.138993
0.139276
0.139545
0.139802
0.140046
0.140277
0.140495
0.140701
0.140895
0.141077
0.141247
0.141405
0.141552
0.141688
0.141813
0.141928
0.142032
0.142127
0.142211
0.142287
0.142353
0.14241
0.142459
0.142499
0.142532
0.142556
0.142574
0.142584
0.142587
0.142584
0.142574
0.142558
0.142536
0.142509
0.142477
0.142439
0.142396
0.142349
0.142298
0.142242
0.142182
0.142119
0.142051
0.141981
0.141907
0.141831
0.141751
0.141669
0.141584
0.141497
0.141408
0.141316
0.141223
0.141128
0.141032
0.140934
0.140834
0.140733
0.140631
0.140528
0.140424
0.140319
0.140214
0.140107
0.14
0.139893
0.139785
0.139677
0.139568
0.13946
0.139351
0.139242
0.139132
0.139023
0.138914
0.138805
0.138696
0.138588
0.138479
0.138371
0.138263
0.138155
0.138048
0.137941
0.137835
0.137729
0.137623
0.137518
0.137413
0.137309
0.137206
0.137103
0.137
0.136898
0.136797
0.136696
0.136596
0.136496
0.136397
0.136299
0.136201
0.136104
0.136007
0.135911
0.135816
0.135721
0.135627
0.135534
0.135441
0.135349
0.135257
0.135166
0.135076
0.134986
0.134897
0.134808
0.13472
0.134633
0.134546
0.13446
0.134375
0.13429
0.134205
0.134121
0.134038
0.133955
0.133873
0.133791
0.13371
0.133629
0.133549
0.133469
0.13339
0.133311
0.133233
0.133155
0.133078
0.133001
0.132925
0.132849
0.132774
0.132699
0.132624
0.13255
0.132476
0.132403
0.13233
0.132258
0.132185
0.132114
0.132042
0.131971
0.131901
0.131831
0.131761
0.131691
0.131622
0.131553
0.131485
0.131416
0.131349
0.131281
0.131214
0.131147
0.13108
0.131014
0.130948
0.130882
0.130817
0.130752
0.130687
0.130622
0.130558
0.130494
0.13043
0.130367
0.130303
0.130241
0.130178
0.130115
0.130053
0.129991
0.12993
0.129868
0.129807
0.129746
0.129685
0.129625
0.129565
0.129505
0.129445
0.129386
0.129326
0.129267
0.129209
0.12915
0.129092
0.129034
0.128976
0.128919
0.128862
0.128805
0.128748
0.128691
0.128635
0.128579
0.128524
0.128468
0.128413
0.128358
0.128304
0.128249
0.128195
0.128142
0.128088
0.128035
0.127983
0.12793
0.127878
0.127826
0.127775
0.127724
0.127673
0.127623
0.127573
0.127523
0.127474
0.127425
0.127377
0.127329
0.127282
0.127235
0.127188
0.127142
0.127097
0.127052
0.127007
0.126963
0.12692
0.126877
0.126835
0.126793
0.126752
0.126712
0.126672
0.126633
0.126595
0.126557
0.12652
0.126484
0.126449
0.126414
0.126381
0.126348
0.126316
0.126285
0.126255
0.126226
0.126198
0.126171
0.126144
0.126119
0.126095
0.126072
0.126051
0.12603
0.12601
0.125992
0.125975
0.125959
0.125944
0.125931
0.125918
0.125907
0.125897
0.125889
0.125882
0.125875
0.12587
0.125866
0.125866
0.1
0.100003
0.10001
0.100021
0.100037
0.100056
0.10008
0.100108
0.10014
0.100176
0.100217
0.100262
0.100311
0.100365
0.100424
0.100487
0.100555
0.100628
0.100705
0.100788
0.100875
0.100968
0.101067
0.10117
0.101279
0.101394
0.101514
0.101641
0.101773
0.101912
0.102056
0.102208
0.102365
0.10253
0.102701
0.10288
0.103065
0.103258
0.103459
0.103667
0.103883
0.104107
0.10434
0.10458
0.104829
0.105087
0.105354
0.10563
0.105914
0.106208
0.106512
0.106825
0.107147
0.107479
0.107821
0.108173
0.108535
0.108907
0.109288
0.10968
0.110082
0.110493
0.110915
0.111346
0.111787
0.112238
0.112698
0.113167
0.113646
0.114133
0.114629
0.115134
0.115646
0.116166
0.116694
0.117228
0.117769
0.118316
0.118868
0.119426
0.119988
0.120554
0.121124
0.121696
0.12227
0.122846
0.123423
0.124001
0.124577
0.125153
0.125727
0.126298
0.126867
0.127431
0.127991
0.128546
0.129096
0.129638
0.130174
0.130702
0.131222
0.131733
0.132235
0.132728
0.13321
0.133681
0.134142
0.134591
0.135028
0.135453
0.135866
0.136266
0.136654
0.137029
0.137391
0.137739
0.138075
0.138397
0.138706
0.139002
0.139284
0.139554
0.13981
0.140054
0.140285
0.140503
0.140709
0.140903
0.141084
0.141254
0.141412
0.141559
0.141695
0.14182
0.141935
0.142039
0.142133
0.142218
0.142293
0.142359
0.142416
0.142464
0.142505
0.142537
0.142562
0.142579
0.142589
0.142592
0.142588
0.142578
0.142562
0.14254
0.142513
0.14248
0.142443
0.1424
0.142353
0.142301
0.142245
0.142185
0.142121
0.142054
0.141983
0.14191
0.141833
0.141753
0.141671
0.141586
0.141499
0.141409
0.141318
0.141225
0.14113
0.141033
0.140935
0.140835
0.140734
0.140632
0.140529
0.140425
0.14032
0.140214
0.140107
0.14
0.139893
0.139785
0.139676
0.139568
0.139459
0.13935
0.139241
0.139131
0.139022
0.138913
0.138804
0.138695
0.138586
0.138477
0.138369
0.138261
0.138153
0.138046
0.137939
0.137832
0.137726
0.137621
0.137515
0.137411
0.137306
0.137203
0.137099
0.136997
0.136895
0.136793
0.136692
0.136592
0.136492
0.136393
0.136295
0.136197
0.136099
0.136003
0.135907
0.135811
0.135716
0.135622
0.135529
0.135436
0.135344
0.135252
0.135161
0.13507
0.13498
0.134891
0.134803
0.134715
0.134627
0.13454
0.134454
0.134368
0.134283
0.134199
0.134115
0.134031
0.133948
0.133866
0.133784
0.133703
0.133622
0.133542
0.133462
0.133382
0.133304
0.133225
0.133148
0.13307
0.132993
0.132917
0.132841
0.132765
0.13269
0.132616
0.132541
0.132468
0.132394
0.132321
0.132249
0.132176
0.132105
0.132033
0.131962
0.131891
0.131821
0.131751
0.131681
0.131612
0.131543
0.131475
0.131406
0.131338
0.131271
0.131203
0.131136
0.13107
0.131003
0.130937
0.130872
0.130806
0.130741
0.130676
0.130611
0.130547
0.130483
0.130419
0.130355
0.130292
0.130229
0.130166
0.130104
0.130042
0.12998
0.129918
0.129856
0.129795
0.129734
0.129673
0.129613
0.129553
0.129493
0.129433
0.129373
0.129314
0.129255
0.129196
0.129138
0.129079
0.129021
0.128964
0.128906
0.128849
0.128792
0.128735
0.128678
0.128622
0.128566
0.12851
0.128455
0.1284
0.128345
0.12829
0.128236
0.128182
0.128128
0.128075
0.128022
0.127969
0.127916
0.127864
0.127812
0.127761
0.12771
0.127659
0.127609
0.127559
0.127509
0.12746
0.127411
0.127363
0.127315
0.127267
0.12722
0.127174
0.127128
0.127082
0.127037
0.126993
0.126949
0.126905
0.126862
0.12682
0.126778
0.126737
0.126697
0.126657
0.126618
0.12658
0.126542
0.126505
0.126469
0.126434
0.126399
0.126366
0.126333
0.126301
0.12627
0.12624
0.126211
0.126182
0.126155
0.126129
0.126104
0.12608
0.126057
0.126035
0.126014
0.125995
0.125976
0.125959
0.125943
0.125928
0.125915
0.125903
0.125891
0.125882
0.125873
0.125866
0.12586
0.125854
0.12585
0.12585
0.1
0.100003
0.10001
0.100021
0.100037
0.100056
0.10008
0.100108
0.10014
0.100176
0.100216
0.100261
0.100311
0.100365
0.100423
0.100486
0.100554
0.100626
0.100704
0.100786
0.100874
0.100967
0.101065
0.101168
0.101277
0.101392
0.101512
0.101638
0.10177
0.101909
0.102053
0.102204
0.102362
0.102526
0.102697
0.102875
0.103061
0.103254
0.103454
0.103662
0.103878
0.104102
0.104334
0.104575
0.104824
0.105081
0.105348
0.105623
0.105908
0.106202
0.106505
0.106818
0.10714
0.107473
0.107815
0.108166
0.108528
0.1089
0.109282
0.109674
0.110075
0.110487
0.110909
0.11134
0.111782
0.112233
0.112693
0.113163
0.113642
0.11413
0.114627
0.115132
0.115645
0.116165
0.116693
0.117228
0.11777
0.118318
0.118871
0.119429
0.119992
0.120559
0.12113
0.121703
0.122278
0.122855
0.123433
0.124011
0.124589
0.125166
0.12574
0.126313
0.126882
0.127448
0.128009
0.128564
0.129114
0.129658
0.130194
0.130723
0.131244
0.131756
0.132258
0.132751
0.133234
0.133705
0.134166
0.134615
0.135053
0.135478
0.135892
0.136292
0.13668
0.137055
0.137417
0.137765
0.138101
0.138423
0.138732
0.139027
0.13931
0.139579
0.139835
0.140078
0.140309
0.140527
0.140732
0.140926
0.141107
0.141276
0.141434
0.141581
0.141716
0.141841
0.141955
0.142059
0.142152
0.142236
0.142311
0.142377
0.142433
0.142481
0.142521
0.142553
0.142577
0.142594
0.142603
0.142606
0.142602
0.142591
0.142575
0.142553
0.142525
0.142492
0.142453
0.14241
0.142363
0.14231
0.142254
0.142194
0.14213
0.142062
0.141991
0.141917
0.14184
0.141759
0.141677
0.141592
0.141504
0.141414
0.141322
0.141229
0.141133
0.141036
0.140937
0.140837
0.140736
0.140634
0.14053
0.140426
0.14032
0.140214
0.140107
0.14
0.139892
0.139784
0.139675
0.139566
0.139457
0.139347
0.139238
0.139128
0.139019
0.138909
0.1388
0.13869
0.138581
0.138472
0.138364
0.138255
0.138147
0.138039
0.137932
0.137825
0.137719
0.137613
0.137507
0.137402
0.137297
0.137193
0.13709
0.136987
0.136884
0.136783
0.136681
0.136581
0.136481
0.136381
0.136282
0.136184
0.136086
0.135989
0.135893
0.135797
0.135702
0.135608
0.135514
0.135421
0.135328
0.135236
0.135145
0.135054
0.134964
0.134874
0.134785
0.134697
0.134609
0.134522
0.134435
0.134349
0.134264
0.134179
0.134094
0.134011
0.133927
0.133845
0.133763
0.133681
0.1336
0.133519
0.133439
0.13336
0.133281
0.133202
0.133124
0.133046
0.132969
0.132892
0.132816
0.13274
0.132665
0.13259
0.132515
0.132441
0.132368
0.132294
0.132222
0.132149
0.132077
0.132005
0.131934
0.131863
0.131792
0.131722
0.131652
0.131583
0.131514
0.131445
0.131376
0.131308
0.13124
0.131173
0.131105
0.131038
0.130972
0.130905
0.130839
0.130774
0.130708
0.130643
0.130578
0.130514
0.130449
0.130385
0.130321
0.130258
0.130195
0.130132
0.130069
0.130007
0.129944
0.129882
0.129821
0.129759
0.129698
0.129637
0.129576
0.129516
0.129456
0.129396
0.129336
0.129277
0.129217
0.129159
0.1291
0.129041
0.128983
0.128925
0.128867
0.12881
0.128753
0.128696
0.128639
0.128583
0.128527
0.128471
0.128415
0.12836
0.128305
0.12825
0.128196
0.128141
0.128087
0.128034
0.127981
0.127928
0.127875
0.127823
0.127771
0.127719
0.127668
0.127617
0.127567
0.127517
0.127467
0.127417
0.127369
0.12732
0.127272
0.127224
0.127177
0.127131
0.127084
0.127039
0.126993
0.126949
0.126905
0.126861
0.126818
0.126776
0.126734
0.126693
0.126652
0.126612
0.126573
0.126535
0.126497
0.12646
0.126424
0.126389
0.126354
0.12632
0.126287
0.126255
0.126224
0.126194
0.126165
0.126136
0.126109
0.126083
0.126058
0.126033
0.12601
0.125988
0.125968
0.125948
0.12593
0.125912
0.125896
0.125881
0.125868
0.125855
0.125844
0.125834
0.125826
0.125818
0.125812
0.125807
0.125803
0.125803
0.1
0.100003
0.10001
0.100021
0.100037
0.100056
0.10008
0.100107
0.100139
0.100175
0.100216
0.100261
0.10031
0.100363
0.100422
0.100485
0.100552
0.100625
0.100702
0.100784
0.100871
0.100964
0.101062
0.101165
0.101274
0.101388
0.101508
0.101634
0.101766
0.101904
0.102048
0.102198
0.102356
0.10252
0.102691
0.102868
0.103054
0.103246
0.103446
0.103654
0.103869
0.104093
0.104325
0.104565
0.104814
0.105071
0.105338
0.105613
0.105897
0.106191
0.106494
0.106807
0.107129
0.107461
0.107803
0.108155
0.108517
0.108889
0.109271
0.109663
0.110065
0.110477
0.110899
0.111331
0.111773
0.112224
0.112686
0.113156
0.113636
0.114124
0.114622
0.115128
0.115642
0.116164
0.116693
0.117229
0.117772
0.118321
0.118875
0.119435
0.119999
0.120568
0.12114
0.121714
0.122291
0.12287
0.123449
0.124029
0.124608
0.125187
0.125763
0.126337
0.126908
0.127475
0.128037
0.128594
0.129145
0.12969
0.130228
0.130758
0.13128
0.131793
0.132296
0.13279
0.133273
0.133746
0.134207
0.134657
0.135095
0.135521
0.135934
0.136335
0.136723
0.137098
0.13746
0.137808
0.138144
0.138466
0.138774
0.13907
0.139352
0.139621
0.139876
0.140119
0.140349
0.140567
0.140772
0.140964
0.141145
0.141313
0.141471
0.141616
0.141751
0.141875
0.141988
0.142091
0.142184
0.142268
0.142342
0.142406
0.142462
0.142509
0.142548
0.142579
0.142603
0.142619
0.142627
0.142629
0.142624
0.142613
0.142596
0.142573
0.142544
0.142511
0.142472
0.142428
0.142379
0.142326
0.142269
0.142208
0.142144
0.142075
0.142003
0.141929
0.141851
0.14177
0.141687
0.141601
0.141512
0.141422
0.14133
0.141235
0.141139
0.141041
0.140942
0.140842
0.14074
0.140637
0.140532
0.140427
0.140321
0.140215
0.140107
0.139999
0.139891
0.139782
0.139673
0.139563
0.139453
0.139343
0.139233
0.139123
0.139013
0.138903
0.138793
0.138683
0.138573
0.138463
0.138354
0.138245
0.138137
0.138028
0.13792
0.137813
0.137706
0.137599
0.137493
0.137387
0.137282
0.137178
0.137074
0.13697
0.136867
0.136765
0.136663
0.136562
0.136461
0.136361
0.136262
0.136163
0.136065
0.135967
0.13587
0.135774
0.135678
0.135583
0.135489
0.135395
0.135302
0.135209
0.135117
0.135026
0.134935
0.134845
0.134756
0.134667
0.134578
0.134491
0.134404
0.134317
0.134231
0.134146
0.134061
0.133976
0.133893
0.13381
0.133727
0.133645
0.133563
0.133482
0.133401
0.133321
0.133242
0.133163
0.133084
0.133006
0.132928
0.132851
0.132774
0.132698
0.132622
0.132547
0.132472
0.132397
0.132323
0.132249
0.132176
0.132103
0.132031
0.131958
0.131887
0.131815
0.131744
0.131674
0.131603
0.131533
0.131464
0.131394
0.131326
0.131257
0.131189
0.131121
0.131053
0.130986
0.130919
0.130852
0.130786
0.130719
0.130654
0.130588
0.130523
0.130458
0.130393
0.130329
0.130265
0.130201
0.130137
0.130074
0.130011
0.129948
0.129885
0.129823
0.129761
0.129699
0.129638
0.129577
0.129516
0.129455
0.129394
0.129334
0.129274
0.129214
0.129155
0.129096
0.129036
0.128978
0.128919
0.128861
0.128803
0.128745
0.128688
0.128631
0.128574
0.128517
0.128461
0.128404
0.128349
0.128293
0.128238
0.128183
0.128128
0.128073
0.128019
0.127966
0.127912
0.127859
0.127806
0.127754
0.127701
0.12765
0.127598
0.127547
0.127496
0.127446
0.127396
0.127346
0.127297
0.127249
0.1272
0.127153
0.127105
0.127058
0.127012
0.126966
0.126921
0.126876
0.126831
0.126788
0.126745
0.126702
0.12666
0.126619
0.126578
0.126538
0.126499
0.12646
0.126422
0.126385
0.126349
0.126313
0.126278
0.126244
0.126211
0.126179
0.126148
0.126117
0.126088
0.126059
0.126032
0.126006
0.12598
0.125956
0.125933
0.125911
0.12589
0.12587
0.125851
0.125834
0.125818
0.125803
0.125789
0.125777
0.125765
0.125755
0.125747
0.125739
0.125733
0.125728
0.125724
0.125724
0.1
0.100003
0.10001
0.100021
0.100036
0.100056
0.100079
0.100107
0.100139
0.100175
0.100215
0.100259
0.100308
0.100362
0.10042
0.100483
0.10055
0.100622
0.100699
0.100781
0.100868
0.10096
0.101058
0.10116
0.101269
0.101382
0.101502
0.101627
0.101759
0.101896
0.10204
0.102191
0.102347
0.102511
0.102681
0.102859
0.103043
0.103235
0.103435
0.103642
0.103857
0.10408
0.104312
0.104552
0.1048
0.105057
0.105323
0.105598
0.105882
0.106176
0.106479
0.106791
0.107114
0.107446
0.107787
0.108139
0.108501
0.108873
0.109255
0.109648
0.11005
0.110463
0.110885
0.111318
0.11176
0.112213
0.112675
0.113146
0.113627
0.114117
0.114615
0.115122
0.115638
0.116161
0.116692
0.11723
0.117774
0.118325
0.118881
0.119443
0.120009
0.12058
0.121154
0.121731
0.12231
0.12289
0.123472
0.124054
0.124635
0.125216
0.125794
0.126371
0.126943
0.127512
0.128077
0.128636
0.129189
0.129736
0.130275
0.130807
0.13133
0.131844
0.132349
0.132844
0.133329
0.133802
0.134265
0.134715
0.135154
0.13558
0.135994
0.136395
0.136784
0.137159
0.137521
0.137869
0.138204
0.138526
0.138834
0.139129
0.139411
0.139679
0.139934
0.140176
0.140406
0.140622
0.140826
0.141018
0.141198
0.141365
0.141522
0.141666
0.1418
0.141923
0.142035
0.142137
0.142229
0.142311
0.142384
0.142448
0.142502
0.142549
0.142586
0.142616
0.142639
0.142653
0.142661
0.142662
0.142656
0.142644
0.142625
0.142601
0.142572
0.142537
0.142497
0.142452
0.142402
0.142348
0.14229
0.142228
0.142163
0.142093
0.142021
0.141945
0.141866
0.141784
0.1417
0.141613
0.141524
0.141433
0.141339
0.141244
0.141147
0.141048
0.140948
0.140847
0.140744
0.14064
0.140535
0.140429
0.140322
0.140215
0.140107
0.139998
0.139888
0.139779
0.139668
0.139558
0.139447
0.139337
0.139226
0.139115
0.139004
0.138893
0.138782
0.138671
0.138561
0.13845
0.13834
0.13823
0.138121
0.138012
0.137903
0.137795
0.137687
0.13758
0.137473
0.137366
0.13726
0.137155
0.13705
0.136946
0.136842
0.136739
0.136636
0.136534
0.136433
0.136332
0.136232
0.136132
0.136033
0.135935
0.135837
0.13574
0.135644
0.135548
0.135453
0.135358
0.135264
0.135171
0.135078
0.134986
0.134895
0.134804
0.134714
0.134624
0.134535
0.134446
0.134359
0.134271
0.134185
0.134098
0.134013
0.133928
0.133843
0.13376
0.133676
0.133593
0.133511
0.133429
0.133348
0.133267
0.133187
0.133107
0.133028
0.132949
0.132871
0.132793
0.132715
0.132638
0.132562
0.132486
0.13241
0.132335
0.13226
0.132186
0.132112
0.132038
0.131965
0.131892
0.13182
0.131748
0.131676
0.131605
0.131534
0.131464
0.131393
0.131324
0.131254
0.131185
0.131116
0.131048
0.130979
0.130911
0.130844
0.130777
0.13071
0.130643
0.130577
0.130511
0.130445
0.130379
0.130314
0.130249
0.130185
0.13012
0.130056
0.129992
0.129929
0.129866
0.129803
0.12974
0.129677
0.129615
0.129553
0.129491
0.12943
0.129369
0.129308
0.129247
0.129187
0.129126
0.129067
0.129007
0.128947
0.128888
0.128829
0.128771
0.128712
0.128654
0.128596
0.128539
0.128481
0.128424
0.128368
0.128311
0.128255
0.128199
0.128143
0.128088
0.128033
0.127978
0.127924
0.12787
0.127816
0.127762
0.127709
0.127656
0.127604
0.127552
0.1275
0.127449
0.127398
0.127347
0.127297
0.127247
0.127197
0.127148
0.1271
0.127052
0.127004
0.126957
0.12691
0.126864
0.126818
0.126773
0.126729
0.126685
0.126641
0.126598
0.126556
0.126515
0.126474
0.126433
0.126394
0.126355
0.126317
0.126279
0.126243
0.126207
0.126172
0.126138
0.126104
0.126072
0.12604
0.12601
0.12598
0.125952
0.125924
0.125897
0.125872
0.125847
0.125824
0.125802
0.12578
0.125761
0.125742
0.125724
0.125708
0.125693
0.125679
0.125666
0.125655
0.125645
0.125636
0.125629
0.125622
0.125617
0.125613
0.125613
0.1
0.100003
0.10001
0.100021
0.100036
0.100055
0.100079
0.100106
0.100138
0.100174
0.100214
0.100258
0.100307
0.10036
0.100418
0.10048
0.100547
0.100619
0.100695
0.100777
0.100864
0.100955
0.101052
0.101154
0.101262
0.101376
0.101495
0.10162
0.10175
0.101887
0.102031
0.10218
0.102336
0.102499
0.102669
0.102846
0.10303
0.103221
0.10342
0.103627
0.103842
0.104064
0.104295
0.104535
0.104782
0.105039
0.105305
0.105579
0.105863
0.106156
0.106459
0.106771
0.107093
0.107425
0.107767
0.108119
0.108481
0.108853
0.109235
0.109628
0.110031
0.110444
0.110867
0.111301
0.111744
0.112197
0.11266
0.113133
0.113615
0.114106
0.114606
0.115115
0.115632
0.116157
0.11669
0.11723
0.117777
0.11833
0.118889
0.119453
0.120022
0.120595
0.121172
0.121751
0.122333
0.122917
0.123501
0.124086
0.12467
0.125254
0.125835
0.126414
0.126989
0.127561
0.128128
0.12869
0.129245
0.129794
0.130336
0.13087
0.131395
0.131911
0.132418
0.132914
0.1334
0.133875
0.134339
0.13479
0.13523
0.135657
0.136071
0.136473
0.136862
0.137237
0.137599
0.137947
0.138282
0.138603
0.138911
0.139206
0.139486
0.139754
0.140008
0.14025
0.140478
0.140694
0.140897
0.141087
0.141266
0.141432
0.141587
0.141731
0.141863
0.141984
0.142095
0.142196
0.142286
0.142367
0.142438
0.142501
0.142554
0.142599
0.142635
0.142664
0.142684
0.142698
0.142704
0.142703
0.142696
0.142682
0.142663
0.142637
0.142606
0.14257
0.142528
0.142482
0.142431
0.142376
0.142317
0.142254
0.142187
0.142116
0.142042
0.141965
0.141885
0.141802
0.141716
0.141628
0.141538
0.141446
0.141351
0.141255
0.141156
0.141057
0.140955
0.140853
0.140749
0.140644
0.140538
0.140431
0.140323
0.140214
0.140105
0.139995
0.139884
0.139773
0.139662
0.139551
0.139439
0.139327
0.139215
0.139103
0.138991
0.138879
0.138767
0.138655
0.138544
0.138432
0.138321
0.13821
0.1381
0.13799
0.13788
0.137771
0.137662
0.137553
0.137445
0.137338
0.137231
0.137125
0.137019
0.136913
0.136809
0.136704
0.136601
0.136498
0.136395
0.136293
0.136192
0.136092
0.135992
0.135892
0.135794
0.135696
0.135598
0.135501
0.135405
0.13531
0.135215
0.135121
0.135027
0.134934
0.134841
0.13475
0.134658
0.134568
0.134478
0.134388
0.1343
0.134211
0.134124
0.134037
0.13395
0.133864
0.133779
0.133694
0.13361
0.133526
0.133443
0.13336
0.133278
0.133196
0.133115
0.133034
0.132954
0.132875
0.132795
0.132717
0.132638
0.132561
0.132483
0.132406
0.13233
0.132254
0.132178
0.132103
0.132028
0.131954
0.13188
0.131807
0.131733
0.131661
0.131588
0.131516
0.131444
0.131373
0.131302
0.131232
0.131161
0.131091
0.131022
0.130953
0.130884
0.130815
0.130747
0.130679
0.130611
0.130544
0.130477
0.13041
0.130344
0.130278
0.130212
0.130146
0.130081
0.130016
0.129951
0.129887
0.129823
0.129759
0.129695
0.129632
0.129569
0.129506
0.129443
0.129381
0.129319
0.129257
0.129196
0.129135
0.129074
0.129013
0.128952
0.128892
0.128832
0.128773
0.128713
0.128654
0.128595
0.128537
0.128478
0.12842
0.128362
0.128305
0.128248
0.128191
0.128134
0.128078
0.128022
0.127966
0.12791
0.127855
0.1278
0.127746
0.127691
0.127638
0.127584
0.127531
0.127478
0.127425
0.127373
0.127321
0.12727
0.127219
0.127168
0.127118
0.127068
0.127019
0.12697
0.126922
0.126874
0.126826
0.126779
0.126733
0.126687
0.126641
0.126596
0.126552
0.126508
0.126465
0.126423
0.126381
0.126339
0.126299
0.126259
0.12622
0.126181
0.126144
0.126107
0.12607
0.126035
0.126001
0.125967
0.125934
0.125902
0.125872
0.125842
0.125813
0.125785
0.125758
0.125732
0.125707
0.125684
0.125661
0.12564
0.12562
0.125601
0.125583
0.125566
0.125551
0.125537
0.125524
0.125513
0.125503
0.125494
0.125486
0.12548
0.125475
0.12547
0.12547
0.1
0.100003
0.10001
0.100021
0.100036
0.100055
0.100078
0.100105
0.100137
0.100172
0.100212
0.100256
0.100305
0.100358
0.100415
0.100477
0.100543
0.100615
0.100691
0.100772
0.100858
0.100949
0.101046
0.101147
0.101254
0.101367
0.101486
0.10161
0.10174
0.101876
0.102019
0.102168
0.102323
0.102485
0.102654
0.102831
0.103014
0.103205
0.103403
0.103609
0.103823
0.104045
0.104275
0.104513
0.104761
0.105017
0.105282
0.105556
0.105839
0.106132
0.106434
0.106746
0.107068
0.1074
0.107742
0.108094
0.108456
0.108828
0.109211
0.109604
0.110007
0.110421
0.110845
0.111279
0.111724
0.112178
0.112643
0.113117
0.1136
0.114093
0.114595
0.115106
0.115626
0.116153
0.116688
0.117231
0.11778
0.118336
0.118898
0.119465
0.120037
0.120614
0.121193
0.121776
0.122362
0.122949
0.123537
0.124125
0.124713
0.1253
0.125885
0.126467
0.127046
0.127621
0.128191
0.128756
0.129314
0.129866
0.130411
0.130947
0.131475
0.131993
0.132502
0.133
0.133488
0.133964
0.134429
0.134882
0.135323
0.135751
0.136166
0.136568
0.136957
0.137332
0.137694
0.138042
0.138377
0.138698
0.139005
0.139299
0.139579
0.139846
0.140099
0.140339
0.140567
0.140781
0.140983
0.141172
0.141349
0.141514
0.141667
0.141809
0.14194
0.142059
0.142169
0.142267
0.142356
0.142435
0.142505
0.142565
0.142617
0.142659
0.142694
0.142721
0.14274
0.142751
0.142756
0.142753
0.142744
0.142729
0.142708
0.14268
0.142648
0.14261
0.142567
0.142519
0.142466
0.142409
0.142349
0.142284
0.142215
0.142143
0.142067
0.141989
0.141907
0.141823
0.141736
0.141646
0.141554
0.14146
0.141364
0.141266
0.141167
0.141066
0.140963
0.140859
0.140753
0.140647
0.140539
0.140431
0.140322
0.140212
0.140101
0.13999
0.139878
0.139766
0.139653
0.13954
0.139427
0.139314
0.139201
0.139087
0.138974
0.138861
0.138747
0.138634
0.138521
0.138409
0.138296
0.138184
0.138072
0.137961
0.13785
0.137739
0.137629
0.13752
0.13741
0.137302
0.137193
0.137086
0.136978
0.136872
0.136766
0.13666
0.136555
0.136451
0.136348
0.136245
0.136142
0.13604
0.135939
0.135839
0.135739
0.135639
0.135541
0.135443
0.135345
0.135249
0.135153
0.135057
0.134962
0.134868
0.134774
0.134681
0.134589
0.134497
0.134406
0.134316
0.134226
0.134136
0.134047
0.133959
0.133872
0.133785
0.133698
0.133612
0.133527
0.133442
0.133358
0.133274
0.133191
0.133108
0.133026
0.132944
0.132863
0.132782
0.132702
0.132622
0.132543
0.132464
0.132386
0.132308
0.13223
0.132153
0.132077
0.132
0.131925
0.131849
0.131774
0.1317
0.131626
0.131552
0.131479
0.131406
0.131333
0.131261
0.131189
0.131118
0.131047
0.130976
0.130905
0.130835
0.130765
0.130696
0.130627
0.130558
0.13049
0.130421
0.130354
0.130286
0.130219
0.130152
0.130085
0.130019
0.129953
0.129887
0.129822
0.129757
0.129692
0.129627
0.129563
0.129499
0.129435
0.129371
0.129308
0.129245
0.129183
0.12912
0.129058
0.128996
0.128934
0.128873
0.128812
0.128751
0.128691
0.12863
0.12857
0.128511
0.128451
0.128392
0.128333
0.128274
0.128216
0.128158
0.1281
0.128043
0.127985
0.127929
0.127872
0.127816
0.12776
0.127704
0.127649
0.127593
0.127539
0.127484
0.12743
0.127377
0.127323
0.12727
0.127218
0.127165
0.127114
0.127062
0.127011
0.12696
0.12691
0.12686
0.126811
0.126762
0.126714
0.126666
0.126618
0.126572
0.126525
0.126479
0.126434
0.126389
0.126345
0.126302
0.126259
0.126216
0.126175
0.126134
0.126093
0.126054
0.126015
0.125977
0.12594
0.125903
0.125867
0.125833
0.125799
0.125766
0.125733
0.125702
0.125672
0.125643
0.125614
0.125587
0.125561
0.125536
0.125512
0.125489
0.125468
0.125447
0.125428
0.12541
0.125393
0.125378
0.125363
0.12535
0.125339
0.125328
0.125319
0.125312
0.125305
0.1253
0.125296
0.125296
0.1
0.100003
0.10001
0.100021
0.100036
0.100055
0.100078
0.100105
0.100136
0.100171
0.100211
0.100254
0.100302
0.100355
0.100412
0.100473
0.100539
0.10061
0.100686
0.100766
0.100852
0.100942
0.101038
0.101139
0.101245
0.101357
0.101475
0.101598
0.101728
0.101863
0.102005
0.102153
0.102308
0.102469
0.102637
0.102812
0.102995
0.103184
0.103382
0.103587
0.1038
0.104021
0.10425
0.104488
0.104735
0.10499
0.105254
0.105528
0.105811
0.106103
0.106405
0.106717
0.107038
0.10737
0.107711
0.108063
0.108426
0.108798
0.109181
0.109575
0.109979
0.110394
0.110818
0.111254
0.111699
0.112155
0.112621
0.113097
0.113583
0.114078
0.114582
0.115095
0.115617
0.116147
0.116685
0.117231
0.117784
0.118343
0.118908
0.119479
0.120055
0.120635
0.121219
0.121806
0.122395
0.122987
0.123579
0.124171
0.124763
0.125354
0.125943
0.126529
0.127112
0.127691
0.128265
0.128834
0.129396
0.129951
0.130499
0.131038
0.131569
0.13209
0.132601
0.133102
0.133592
0.13407
0.134537
0.134991
0.135433
0.135862
0.136278
0.136681
0.13707
0.137445
0.137807
0.138155
0.13849
0.13881
0.139117
0.13941
0.139689
0.139954
0.140207
0.140445
0.140671
0.140884
0.141084
0.141271
0.141447
0.14161
0.141761
0.141901
0.14203
0.142148
0.142255
0.142351
0.142438
0.142515
0.142582
0.142641
0.14269
0.142731
0.142763
0.142788
0.142805
0.142814
0.142816
0.142812
0.142801
0.142783
0.14276
0.142731
0.142696
0.142656
0.142611
0.142561
0.142506