# vtk DataFile Version 3.0
LBM Fluid Grid
ASCII
DATASET STRUCTURED_POINTS
DIMENSIONS 400 150 1
ORIGIN 0 0 0
SPACING 1 1 1
POINT_DATA 60000
SCALARS VelocityMagnitude double 1
LOOKUP_TABLE default
0.1
0.0999878
0.0999824
0.0999841
0.0999927
0.100008
0.10003
0.100059
0.100093
0.100133
0.100179
0.100229
0.100284
0.100343
0.100406
0.100473
0.100544
0.100619
0.100697
0.100779
0.100865
0.100955
0.10105
0.101149
0.101253
0.101362
0.101477
0.101598
0.101725
0.101858
0.101998
0.102145
0.102299
0.102461
0.10263
0.102806
0.102991
0.103183
0.103384
0.103592
0.103809
0.104034
0.104267
0.104509
0.104759
0.105018
0.105286
0.105562
0.105848
0.106142
0.106446
0.106759
0.107082
0.107414
0.107756
0.108107
0.108469
0.10884
0.109222
0.109613
0.110015
0.110427
0.110849
0.11128
0.111722
0.112173
0.112635
0.113105
0.113585
0.114074
0.114571
0.115077
0.115591
0.116113
0.116642
0.117178
0.117721
0.11827
0.118824
0.119383
0.119946
0.120514
0.121085
0.121658
0.122234
0.122811
0.123389
0.123968
0.124545
0.125122
0.125697
0.126269
0.126838
0.127404
0.127965
0.128521
0.129071
0.129614
0.130151
0.13068
0.1312
0.131713
0.132215
0.132709
0.133191
0.133664
0.134125
0.134575
0.135013
0.135439
0.135853
0.136254
0.136642
0.137018
0.13738
0.13773
0.138066
0.138388
0.138698
0.138994
0.139277
0.139547
0.139804
0.140048
0.140279
0.140498
0.140704
0.140898
0.141079
0.141249
0.141408
0.141555
0.141691
0.141816
0.141931
0.142035
0.142129
0.142214
0.142289
0.142355
0.142412
0.142461
0.142501
0.142534
0.142558
0.142575
0.142585
0.142588
0.142585
0.142575
0.142559
0.142537
0.14251
0.142477
0.142439
0.142396
0.142349
0.142297
0.142241
0.142181
0.142117
0.14205
0.141979
0.141905
0.141828
0.141748
0.141666
0.141581
0.141493
0.141404
0.141312
0.141218
0.141123
0.141026
0.140927
0.140828
0.140726
0.140624
0.140521
0.140416
0.140311
0.140205
0.140099
0.139991
0.139884
0.139775
0.139667
0.139558
0.139449
0.13934
0.13923
0.139121
0.139012
0.138902
0.138793
0.138684
0.138575
0.138466
0.138358
0.138249
0.138142
0.138034
0.137927
0.13782
0.137714
0.137608
0.137503
0.137398
0.137294
0.13719
0.137087
0.136984
0.136882
0.136781
0.13668
0.136579
0.13648
0.136381
0.136282
0.136184
0.136087
0.135991
0.135895
0.135799
0.135705
0.135611
0.135517
0.135424
0.135332
0.135241
0.13515
0.13506
0.13497
0.134881
0.134792
0.134705
0.134617
0.134531
0.134445
0.134359
0.134274
0.13419
0.134106
0.134023
0.13394
0.133858
0.133776
0.133695
0.133615
0.133535
0.133455
0.133376
0.133297
0.133219
0.133142
0.133065
0.132988
0.132912
0.132836
0.132761
0.132686
0.132611
0.132537
0.132464
0.13239
0.132317
0.132245
0.132173
0.132101
0.13203
0.131959
0.131889
0.131818
0.131748
0.131679
0.13161
0.131541
0.131472
0.131404
0.131336
0.131269
0.131202
0.131135
0.131068
0.131002
0.130936
0.13087
0.130805
0.13074
0.130675
0.13061
0.130546
0.130482
0.130418
0.130354
0.130291
0.130228
0.130166
0.130103
0.130041
0.129979
0.129917
0.129856
0.129795
0.129734
0.129673
0.129613
0.129552
0.129492
0.129433
0.129373
0.129314
0.129255
0.129197
0.129138
0.12908
0.129022
0.128965
0.128907
0.12885
0.128793
0.128737
0.12868
0.128624
0.128569
0.128513
0.128458
0.128403
0.128348
0.128294
0.12824
0.128186
0.128133
0.12808
0.128027
0.127975
0.127922
0.127871
0.127819
0.127768
0.127717
0.127667
0.127617
0.127568
0.127518
0.12747
0.127421
0.127373
0.127326
0.127279
0.127232
0.127186
0.127141
0.127096
0.127051
0.127007
0.126963
0.12692
0.126878
0.126836
0.126795
0.126755
0.126715
0.126675
0.126637
0.126599
0.126562
0.126525
0.12649
0.126455
0.126421
0.126387
0.126355
0.126324
0.126293
0.126263
0.126234
0.126207
0.12618
0.126154
0.126129
0.126105
0.126083
0.126061
0.126041
0.126022
0.126003
0.125986
0.125971
0.125956
0.125943
0.125931
0.12592
0.12591
0.125902
0.125895
0.125888
0.125883
0.125879
0.125879
0.1
0.0999878
0.0999824
0.0999841
0.0999927
0.100008
0.10003
0.100059
0.100093
0.100133
0.100179
0.100229
0.100284
0.100343
0.100406
0.100473
0.100544
0.100618
0.100697
0.100779
0.100864
0.100955
0.101049
0.101148
0.101252
0.101361
0.101476
0.101597
0.101724
0.101857
0.101997
0.102144
0.102298
0.102459
0.102628
0.102805
0.102989
0.103182
0.103382
0.103591
0.103807
0.104032
0.104265
0.104507
0.104757
0.105016
0.105284
0.10556
0.105846
0.10614
0.106444
0.106757
0.107079
0.107412
0.107753
0.108105
0.108467
0.108838
0.10922
0.109611
0.110013
0.110425
0.110847
0.111279
0.11172
0.112172
0.112633
0.113104
0.113584
0.114073
0.11457
0.115077
0.115591
0.116113
0.116642
0.117179
0.117721
0.11827
0.118825
0.119384
0.119948
0.120516
0.121087
0.121661
0.122237
0.122814
0.123393
0.123971
0.124549
0.125126
0.125702
0.126274
0.126844
0.127409
0.127971
0.128527
0.129077
0.129621
0.130158
0.130687
0.131208
0.13172
0.132223
0.132716
0.133199
0.133672
0.134133
0.134583
0.135021
0.135448
0.135861
0.136263
0.136651
0.137027
0.137389
0.137738
0.138074
0.138397
0.138707
0.139003
0.139286
0.139556
0.139812
0.140056
0.140287
0.140506
0.140712
0.140905
0.141087
0.141257
0.141415
0.141562
0.141698
0.141823
0.141937
0.142041
0.142136
0.14222
0.142295
0.142361
0.142418
0.142467
0.142507
0.142539
0.142563
0.14258
0.14259
0.142593
0.14259
0.142579
0.142563
0.142541
0.142514
0.142481
0.142443
0.1424
0.142352
0.1423
0.142244
0.142184
0.14212
0.142053
0.141982
0.141908
0.14183
0.14175
0.141668
0.141582
0.141495
0.141405
0.141313
0.14122
0.141124
0.141027
0.140928
0.140828
0.140727
0.140625
0.140521
0.140417
0.140311
0.140205
0.140099
0.139991
0.139883
0.139775
0.139666
0.139557
0.139448
0.139339
0.139229
0.13912
0.13901
0.138901
0.138792
0.138682
0.138573
0.138464
0.138356
0.138248
0.13814
0.138032
0.137925
0.137818
0.137712
0.137606
0.1375
0.137395
0.137291
0.137187
0.137084
0.136981
0.136879
0.136777
0.136676
0.136576
0.136476
0.136377
0.136278
0.13618
0.136083
0.135986
0.13589
0.135795
0.1357
0.135606
0.135512
0.135419
0.135327
0.135235
0.135144
0.135054
0.134964
0.134875
0.134787
0.134699
0.134611
0.134525
0.134438
0.134353
0.134268
0.134183
0.134099
0.134016
0.133933
0.133851
0.133769
0.133688
0.133607
0.133527
0.133448
0.133368
0.13329
0.133212
0.133134
0.133057
0.13298
0.132904
0.132828
0.132752
0.132677
0.132603
0.132529
0.132455
0.132381
0.132309
0.132236
0.132164
0.132092
0.132021
0.13195
0.131879
0.131809
0.131739
0.131669
0.1316
0.131531
0.131463
0.131394
0.131326
0.131259
0.131191
0.131124
0.131058
0.130991
0.130925
0.130859
0.130794
0.130729
0.130664
0.130599
0.130535
0.130471
0.130407
0.130343
0.13028
0.130217
0.130154
0.130091
0.130029
0.129967
0.129905
0.129844
0.129783
0.129722
0.129661
0.1296
0.12954
0.12948
0.129421
0.129361
0.129302
0.129243
0.129184
0.129126
0.129067
0.129009
0.128952
0.128894
0.128837
0.12878
0.128724
0.128667
0.128611
0.128555
0.1285
0.128445
0.12839
0.128335
0.128281
0.128226
0.128173
0.128119
0.128066
0.128013
0.127961
0.127909
0.127857
0.127805
0.127754
0.127704
0.127653
0.127603
0.127554
0.127504
0.127456
0.127407
0.127359
0.127312
0.127265
0.127218
0.127172
0.127126
0.127081
0.127036
0.126992
0.126949
0.126906
0.126863
0.126822
0.12678
0.12674
0.1267
0.12666
0.126622
0.126584
0.126547
0.12651
0.126475
0.12644
0.126406
0.126372
0.12634
0.126308
0.126278
0.126248
0.126219
0.126191
0.126164
0.126139
0.126114
0.12609
0.126067
0.126046
0.126025
0.126006
0.125988
0.125971
0.125955
0.12594
0.125927
0.125915
0.125904
0.125894
0.125886
0.125879
0.125873
0.125868
0.125864
0.125864
0.1
0.0999878
0.0999825
0.0999841
0.0999927
0.100008
0.10003
0.100059
0.100093
0.100133
0.100178
0.100229
0.100283
0.100342
0.100405
0.100472
0.100543
0.100617
0.100695
0.100777
0.100863
0.100953
0.101047
0.101146
0.10125
0.101359
0.101474
0.101594
0.101721
0.101854
0.101994
0.102141
0.102295
0.102456
0.102625
0.102801
0.102985
0.103177
0.103378
0.103586
0.103802
0.104027
0.10426
0.104502
0.104752
0.10501
0.105278
0.105554
0.105839
0.106134
0.106437
0.10675
0.107073
0.107405
0.107747
0.108099
0.10846
0.108832
0.109213
0.109605
0.110007
0.110419
0.110841
0.111273
0.111715
0.112167
0.112629
0.1131
0.11358
0.11407
0.114568
0.115075
0.115589
0.116112
0.116642
0.117179
0.117723
0.118272
0.118828
0.119388
0.119953
0.120521
0.121093
0.121668
0.122245
0.122824
0.123403
0.123982
0.124561
0.125139
0.125715
0.126289
0.126859
0.127426
0.127988
0.128545
0.129096
0.12964
0.130178
0.130708
0.13123
0.131742
0.132246
0.13274
0.133223
0.133696
0.134158
0.134608
0.135047
0.135473
0.135887
0.136289
0.136677
0.137053
0.137415
0.137764
0.1381
0.138423
0.138732
0.139028
0.139311
0.139581
0.139837
0.140081
0.140311
0.14053
0.140735
0.140929
0.14111
0.141279
0.141437
0.141584
0.141719
0.141843
0.141957
0.142061
0.142155
0.142239
0.142314
0.142379
0.142436
0.142483
0.142523
0.142555
0.142579
0.142595
0.142605
0.142607
0.142603
0.142593
0.142576
0.142554
0.142526
0.142492
0.142454
0.142411
0.142363
0.14231
0.142254
0.142193
0.142129
0.142061
0.141989
0.141915
0.141837
0.141757
0.141674
0.141588
0.1415
0.14141
0.141318
0.141224
0.141128
0.14103
0.140931
0.140831
0.140729
0.140627
0.140523
0.140418
0.140312
0.140206
0.140099
0.139991
0.139883
0.139774
0.139665
0.139556
0.139446
0.139337
0.139227
0.139117
0.139007
0.138897
0.138787
0.138678
0.138568
0.138459
0.13835
0.138242
0.138133
0.138025
0.137918
0.137811
0.137704
0.137598
0.137492
0.137387
0.137282
0.137178
0.137074
0.136971
0.136868
0.136767
0.136665
0.136564
0.136464
0.136365
0.136266
0.136168
0.13607
0.135973
0.135877
0.135781
0.135686
0.135591
0.135497
0.135404
0.135312
0.13522
0.135128
0.135038
0.134948
0.134858
0.134769
0.134681
0.134593
0.134506
0.13442
0.134334
0.134248
0.134164
0.134079
0.133996
0.133913
0.13383
0.133748
0.133667
0.133586
0.133505
0.133425
0.133346
0.133267
0.133188
0.13311
0.133033
0.132956
0.132879
0.132803
0.132727
0.132652
0.132577
0.132503
0.132429
0.132355
0.132282
0.132209
0.132137
0.132065
0.131993
0.131922
0.131851
0.13178
0.13171
0.13164
0.131571
0.131501
0.131433
0.131364
0.131296
0.131228
0.131161
0.131093
0.131026
0.13096
0.130893
0.130827
0.130762
0.130696
0.130631
0.130566
0.130501
0.130437
0.130373
0.130309
0.130246
0.130182
0.130119
0.130057
0.129994
0.129932
0.12987
0.129808
0.129747
0.129686
0.129625
0.129564
0.129504
0.129444
0.129384
0.129324
0.129264
0.129205
0.129146
0.129088
0.129029
0.128971
0.128913
0.128856
0.128798
0.128741
0.128685
0.128628
0.128572
0.128516
0.12846
0.128405
0.12835
0.128295
0.12824
0.128186
0.128132
0.128079
0.128025
0.127972
0.12792
0.127867
0.127815
0.127764
0.127713
0.127662
0.127611
0.127561
0.127511
0.127462
0.127413
0.127364
0.127316
0.127269
0.127222
0.127175
0.127129
0.127083
0.127038
0.126993
0.126949
0.126905
0.126862
0.126819
0.126777
0.126736
0.126695
0.126655
0.126616
0.126577
0.126539
0.126502
0.126465
0.126429
0.126394
0.12636
0.126327
0.126294
0.126263
0.126232
0.126202
0.126173
0.126145
0.126118
0.126092
0.126067
0.126043
0.126021
0.125999
0.125979
0.125959
0.125941
0.125924
0.125908
0.125893
0.12588
0.125868
0.125857
0.125847
0.125839
0.125831
0.125825
0.12582
0.125816
0.125816
0.1
0.0999879
0.0999826
0.0999842
0.0999928
0.100008
0.10003
0.100059
0.100093
0.100133
0.100178
0.100228
0.100283
0.100341
0.100404
0.100471
0.100541
0.100616
0.100693
0.100775
0.10086
0.10095
0.101044
0.101143
0.101246
0.101355
0.10147
0.10159
0.101716
0.101849
0.101989
0.102135
0.102289
0.10245
0.102618
0.102794
0.102978
0.10317
0.10337
0.103578
0.103794
0.104018
0.104251
0.104492
0.104742
0.105001
0.105268
0.105544
0.105829
0.106123
0.106427
0.10674
0.107062
0.107394
0.107736
0.108088
0.108449
0.108821
0.109203
0.109595
0.109997
0.110409
0.110832
0.111264
0.111707
0.112159
0.112622
0.113093
0.113574
0.114065
0.114564
0.115071
0.115587
0.116111
0.116642
0.11718
0.117725
0.118276
0.118832
0.119394
0.11996
0.12053
0.121104
0.12168
0.122259
0.122839
0.12342
0.124001
0.124581
0.125161
0.125738
0.126313
0.126885
0.127453
0.128017
0.128575
0.129127
0.129673
0.130212
0.130743
0.131266
0.13178
0.132284
0.132779
0.133264
0.133737
0.1342
0.13465
0.135089
0.135516
0.13593
0.136332
0.136721
0.137096
0.137459
0.137808
0.138144
0.138466
0.138775
0.139071
0.139354
0.139623
0.139879
0.140122
0.140352
0.14057
0.140775
0.140967
0.141148
0.141317
0.141474
0.141619
0.141754
0.141878
0.141991
0.142094
0.142187
0.14227
0.142344
0.142409
0.142464
0.142512
0.142551
0.142582
0.142605
0.14262
0.142629
0.142631
0.142626
0.142615
0.142597
0.142574
0.142545
0.142511
0.142472
0.142428
0.142379
0.142326
0.142269
0.142208
0.142143
0.142074
0.142002
0.141927
0.141848
0.141767
0.141684
0.141597
0.141509
0.141418
0.141325
0.14123
0.141134
0.141036
0.140936
0.140835
0.140733
0.14063
0.140525
0.14042
0.140313
0.140206
0.140099
0.13999
0.139882
0.139772
0.139663
0.139553
0.139443
0.139332
0.139222
0.139112
0.139001
0.138891
0.13878
0.13867
0.13856
0.13845
0.138341
0.138232
0.138123
0.138014
0.137906
0.137799
0.137691
0.137584
0.137478
0.137372
0.137267
0.137162
0.137058
0.136954
0.136851
0.136749
0.136647
0.136545
0.136445
0.136345
0.136245
0.136146
0.136048
0.135951
0.135854
0.135757
0.135662
0.135567
0.135472
0.135379
0.135285
0.135193
0.135101
0.13501
0.134919
0.134829
0.13474
0.134651
0.134563
0.134475
0.134388
0.134302
0.134216
0.134131
0.134046
0.133962
0.133878
0.133795
0.133712
0.13363
0.133549
0.133468
0.133387
0.133308
0.133228
0.133149
0.133071
0.132993
0.132915
0.132838
0.132761
0.132685
0.132609
0.132534
0.132459
0.132385
0.132311
0.132237
0.132164
0.132091
0.132018
0.131946
0.131875
0.131803
0.131732
0.131662
0.131591
0.131521
0.131452
0.131382
0.131314
0.131245
0.131177
0.131109
0.131041
0.130974
0.130907
0.13084
0.130774
0.130707
0.130642
0.130576
0.130511
0.130446
0.130381
0.130317
0.130252
0.130189
0.130125
0.130062
0.129999
0.129936
0.129873
0.129811
0.129749
0.129687
0.129626
0.129564
0.129503
0.129443
0.129382
0.129322
0.129262
0.129202
0.129143
0.129083
0.129024
0.128966
0.128907
0.128849
0.128791
0.128734
0.128676
0.128619
0.128563
0.128506
0.12845
0.128394
0.128338
0.128283
0.128228
0.128173
0.128118
0.128064
0.12801
0.127957
0.127904
0.127851
0.127798
0.127746
0.127694
0.127643
0.127592
0.127541
0.127491
0.127441
0.127391
0.127342
0.127293
0.127245
0.127197
0.12715
0.127103
0.127056
0.12701
0.126965
0.12692
0.126876
0.126832
0.126788
0.126746
0.126704
0.126662
0.126621
0.126581
0.126541
0.126502
0.126464
0.126427
0.12639
0.126354
0.126319
0.126284
0.126251
0.126218
0.126186
0.126155
0.126125
0.126096
0.126068
0.126041
0.126015
0.12599
0.125966
0.125943
0.125921
0.125901
0.125881
0.125863
0.125845
0.125829
0.125815
0.125801
0.125789
0.125778
0.125768
0.12576
0.125752
0.125746
0.125741
0.125737
0.125737
0.1
0.0999879
0.0999827
0.0999843
0.0999929
0.100008
0.10003
0.100058
0.100093
0.100132
0.100177
0.100227
0.100281
0.10034
0.100403
0.100469
0.100539
0.100613
0.10069
0.100772
0.100857
0.100946
0.10104
0.101138
0.101242
0.10135
0.101464
0.101584
0.10171
0.101842
0.101981
0.102128
0.102281
0.102441
0.102609
0.102785
0.102968
0.10316
0.103359
0.103567
0.103782
0.104006
0.104239
0.10448
0.104729
0.104987
0.105254
0.10553
0.105815
0.106109
0.106412
0.106725
0.107047
0.107379
0.107721
0.108072
0.108434
0.108806
0.109188
0.10958
0.109983
0.110396
0.110819
0.111252
0.111695
0.112148
0.112611
0.113084
0.113566
0.114058
0.114558
0.115067
0.115584
0.116109
0.116642
0.117182
0.117728
0.118281
0.118839
0.119403
0.119971
0.120543
0.121119
0.121697
0.122278
0.12286
0.123443
0.124026
0.124609
0.125191
0.125771
0.126348
0.126922
0.127492
0.128057
0.128618
0.129172
0.12972
0.13026
0.130793
0.131317
0.131832
0.132338
0.132834
0.13332
0.133794
0.134258
0.134709
0.135149
0.135576
0.135991
0.136393
0.136782
0.137157
0.13752
0.137869
0.138205
0.138527
0.138836
0.139131
0.139413
0.139681
0.139937
0.140179
0.140409
0.140625
0.14083
0.141021
0.141201
0.141369
0.141525
0.14167
0.141803
0.141926
0.142038
0.14214
0.142232
0.142314
0.142387
0.14245
0.142505
0.142551
0.142589
0.142619
0.142641
0.142655
0.142663
0.142663
0.142657
0.142645
0.142627
0.142602
0.142573
0.142538
0.142497
0.142452
0.142402
0.142348
0.14229
0.142228
0.142162
0.142092
0.142019
0.141943
0.141864
0.141782
0.141697
0.14161
0.14152
0.141429
0.141335
0.141239
0.141142
0.141043
0.140943
0.140841
0.140738
0.140633
0.140528
0.140422
0.140315
0.140207
0.140098
0.139989
0.139879
0.139769
0.139659
0.139548
0.139437
0.139326
0.139215
0.139103
0.138992
0.138881
0.13877
0.138659
0.138548
0.138437
0.138327
0.138217
0.138107
0.137998
0.137889
0.137781
0.137673
0.137565
0.137458
0.137351
0.137245
0.13714
0.137035
0.13693
0.136826
0.136723
0.13662
0.136518
0.136417
0.136316
0.136216
0.136116
0.136017
0.135919
0.135821
0.135724
0.135627
0.135532
0.135436
0.135342
0.135248
0.135155
0.135062
0.13497
0.134879
0.134788
0.134698
0.134608
0.134519
0.134431
0.134343
0.134256
0.134169
0.134083
0.133998
0.133913
0.133829
0.133745
0.133662
0.133579
0.133497
0.133415
0.133334
0.133253
0.133173
0.133094
0.133014
0.132936
0.132857
0.13278
0.132702
0.132626
0.132549
0.132473
0.132398
0.132323
0.132248
0.132174
0.1321
0.132026
0.131953
0.13188
0.131808
0.131736
0.131664
0.131593
0.131522
0.131452
0.131382
0.131312
0.131242
0.131173
0.131104
0.131036
0.130967
0.1309
0.130832
0.130765
0.130698
0.130631
0.130565
0.130499
0.130433
0.130367
0.130302
0.130237
0.130173
0.130108
0.130044
0.12998
0.129917
0.129853
0.12979
0.129728
0.129665
0.129603
0.129541
0.129479
0.129418
0.129356
0.129296
0.129235
0.129174
0.129114
0.129054
0.128995
0.128935
0.128876
0.128818
0.128759
0.128701
0.128643
0.128585
0.128528
0.12847
0.128414
0.128357
0.128301
0.128245
0.128189
0.128133
0.128078
0.128023
0.127969
0.127915
0.127861
0.127807
0.127754
0.127701
0.127649
0.127597
0.127545
0.127494
0.127442
0.127392
0.127342
0.127292
0.127242
0.127193
0.127145
0.127097
0.127049
0.127002
0.126955
0.126909
0.126863
0.126818
0.126773
0.126729
0.126685
0.126642
0.1266
0.126558
0.126517
0.126477
0.126437
0.126398
0.126359
0.126321
0.126284
0.126248
0.126213
0.126178
0.126144
0.126111
0.126079
0.126048
0.126018
0.125989
0.12596
0.125933
0.125907
0.125881
0.125857
0.125834
0.125812
0.125791
0.125771
0.125753
0.125736
0.125719
0.125705
0.125691
0.125679
0.125667
0.125657
0.125649
0.125641
0.125635
0.12563
0.125626
0.125626
0.1
0.099988
0.0999828
0.0999845
0.099993
0.100008
0.10003
0.100058
0.100092
0.100132
0.100176
0.100226
0.10028
0.100338
0.100401
0.100467
0.100536
0.10061
0.100687
0.100768
0.100852
0.100941
0.101035
0.101132
0.101235
0.101343
0.101457
0.101576
0.101702
0.101834
0.101972
0.102118
0.10227
0.10243
0.102598
0.102773
0.102956
0.103146
0.103345
0.103552
0.103767
0.103991
0.104223
0.104463
0.104712
0.104969
0.105236
0.105511
0.105796
0.106089
0.106392
0.106705
0.107027
0.107359
0.107701
0.108052
0.108414
0.108786
0.109169
0.109561
0.109964
0.110378
0.110801
0.111235
0.11168
0.112134
0.112598
0.113072
0.113555
0.114048
0.11455
0.115061
0.11558
0.116107
0.116641
0.117183
0.117732
0.118287
0.118848
0.119414
0.119985
0.120559
0.121138
0.121719
0.122302
0.122887
0.123473
0.124059
0.124645
0.125229
0.125812
0.126392
0.126969
0.127541
0.12811
0.128672
0.129229
0.129779
0.130322
0.130856
0.131383
0.1319
0.132408
0.132905
0.133392
0.133868
0.134332
0.134785
0.135225
0.135653
0.136069
0.136471
0.13686
0.137236
0.137599
0.137948
0.138283
0.138605
0.138913
0.139208
0.139489
0.139757
0.140012
0.140253
0.140482
0.140697
0.1409
0.141091
0.141269
0.141436
0.141591
0.141734
0.141867
0.141988
0.142099
0.142199
0.14229
0.14237
0.142441
0.142504
0.142557
0.142601
0.142638
0.142666
0.142687
0.1427
0.142706
0.142705
0.142698
0.142684
0.142664
0.142639
0.142607
0.142571
0.142529
0.142483
0.142432
0.142376
0.142317
0.142253
0.142186
0.142115
0.142041
0.141963
0.141883
0.1418
0.141714
0.141625
0.141535
0.141442
0.141347
0.14125
0.141152
0.141051
0.14095
0.140847
0.140743
0.140637
0.140531
0.140423
0.140315
0.140206
0.140096
0.139986
0.139875
0.139764
0.139653
0.139541
0.139429
0.139317
0.139204
0.139092
0.13898
0.138867
0.138755
0.138643
0.138531
0.13842
0.138308
0.138197
0.138087
0.137976
0.137866
0.137757
0.137648
0.137539
0.137431
0.137323
0.137216
0.137109
0.137003
0.136898
0.136793
0.136689
0.136585
0.136482
0.136379
0.136277
0.136176
0.136076
0.135976
0.135876
0.135778
0.135679
0.135582
0.135485
0.135389
0.135294
0.135199
0.135105
0.135011
0.134918
0.134826
0.134734
0.134643
0.134552
0.134462
0.134373
0.134284
0.134196
0.134109
0.134022
0.133935
0.13385
0.133764
0.13368
0.133595
0.133512
0.133429
0.133346
0.133264
0.133183
0.133102
0.133021
0.132941
0.132861
0.132782
0.132704
0.132626
0.132548
0.132471
0.132394
0.132318
0.132242
0.132166
0.132091
0.132016
0.131942
0.131868
0.131795
0.131721
0.131649
0.131576
0.131504
0.131433
0.131361
0.13129
0.13122
0.13115
0.13108
0.13101
0.130941
0.130872
0.130803
0.130735
0.130667
0.130599
0.130532
0.130465
0.130398
0.130332
0.130266
0.1302
0.130134
0.130069
0.130004
0.129939
0.129875
0.129811
0.129747
0.129683
0.12962
0.129557
0.129494
0.129431
0.129369
0.129307
0.129245
0.129184
0.129122
0.129061
0.129001
0.12894
0.12888
0.12882
0.128761
0.128701
0.128642
0.128584
0.128525
0.128467
0.128409
0.128351
0.128294
0.128237
0.12818
0.128124
0.128068
0.128012
0.127956
0.127901
0.127846
0.127791
0.127737
0.127683
0.127629
0.127576
0.127523
0.127471
0.127419
0.127367
0.127315
0.127264
0.127214
0.127164
0.127114
0.127064
0.127015
0.126967
0.126919
0.126871
0.126824
0.126778
0.126732
0.126686
0.126641
0.126597
0.126553
0.126509
0.126467
0.126424
0.126383
0.126342
0.126302
0.126263
0.126224
0.126186
0.126148
0.126112
0.126076
0.126041
0.126007
0.125974
0.125942
0.12591
0.12588
0.12585
0.125821
0.125794
0.125767
0.125742
0.125717
0.125694
0.125672
0.12565
0.12563
0.125612
0.125594
0.125578
0.125563
0.125549
0.125536
0.125525
0.125515
0.125506
0.125499
0.125493
0.125487
0.125483
0.125483
0.1
0.0999881
0.099983
0.0999847
0.0999932
0.100008
0.10003
0.100058
0.100092
0.100131
0.100175
0.100225
0.100278
0.100336
0.100398
0.100463
0.100533
0.100606
0.100682
0.100763
0.100847
0.100935
0.101028
0.101125
0.101228
0.101335
0.101448
0.101567
0.101692
0.101823
0.101961
0.102106
0.102257
0.102417
0.102584
0.102758
0.10294
0.10313
0.103328
0.103535
0.103749
0.103972
0.104203
0.104443
0.104691
0.104948
0.105214
0.105489
0.105773
0.106066
0.106369
0.106681
0.107003
0.107335
0.107676
0.108028
0.10839
0.108762
0.109145
0.109538
0.109942
0.110356
0.11078
0.111215
0.11166
0.112116
0.112581
0.113057
0.113542
0.114036
0.11454
0.115053
0.115574
0.116103
0.116641
0.117185
0.117736
0.118294
0.118858
0.119427
0.120001
0.120579
0.121161
0.121745
0.122332
0.12292
0.12351
0.1241
0.124689
0.125277
0.125863
0.126446
0.127026
0.127602
0.128173
0.128739
0.129299
0.129852
0.130397
0.130935
0.131463
0.131983
0.132492
0.132992
0.133481
0.133958
0.134424
0.134878
0.135319
0.135748
0.136164
0.136567
0.136956
0.137332
0.137695
0.138044
0.138379
0.1387
0.139008
0.139302
0.139582
0.139849
0.140103
0.140343
0.140571
0.140785
0.140987
0.141176
0.141353
0.141518
0.141671
0.141813
0.141944
0.142063
0.142172
0.142271
0.14236
0.142439
0.142508
0.142568
0.14262
0.142662
0.142697
0.142724
0.142742
0.142754
0.142758
0.142756
0.142746
0.142731
0.142709
0.142682
0.142649
0.142611
0.142568
0.14252
0.142467
0.14241
0.142349
0.142283
0.142214
0.142142
0.142066
0.141987
0.141905
0.141821
0.141733
0.141643
0.141551
0.141457
0.14136
0.141262
0.141162
0.141061
0.140957
0.140853
0.140747
0.140641
0.140533
0.140424
0.140314
0.140204
0.140093
0.139981
0.139869
0.139757
0.139644
0.139531
0.139417
0.139304
0.13919
0.139076
0.138963
0.138849
0.138736
0.138622
0.138509
0.138396
0.138284
0.138171
0.138059
0.137948
0.137836
0.137726
0.137615
0.137505
0.137396
0.137287
0.137178
0.137071
0.136963
0.136857
0.13675
0.136645
0.13654
0.136435
0.136332
0.136229
0.136126
0.136024
0.135923
0.135823
0.135723
0.135623
0.135525
0.135427
0.135329
0.135233
0.135137
0.135041
0.134947
0.134852
0.134759
0.134666
0.134574
0.134482
0.134391
0.1343
0.134211
0.134121
0.134033
0.133945
0.133857
0.13377
0.133684
0.133598
0.133513
0.133428
0.133344
0.13326
0.133177
0.133094
0.133012
0.132931
0.13285
0.132769
0.132689
0.132609
0.13253
0.132451
0.132373
0.132295
0.132218
0.132141
0.132064
0.131988
0.131913
0.131837
0.131763
0.131688
0.131614
0.13154
0.131467
0.131394
0.131322
0.131249
0.131177
0.131106
0.131035
0.130964
0.130894
0.130824
0.130754
0.130684
0.130615
0.130546
0.130478
0.13041
0.130342
0.130274
0.130207
0.13014
0.130073
0.130007
0.129941
0.129875
0.12981
0.129745
0.12968
0.129615
0.129551
0.129487
0.129423
0.129359
0.129296
0.129233
0.12917
0.129108
0.129046
0.128984
0.128922
0.128861
0.1288
0.128739
0.128679
0.128619
0.128559
0.128499
0.12844
0.12838
0.128322
0.128263
0.128205
0.128147
0.128089
0.128032
0.127975
0.127918
0.127862
0.127806
0.12775
0.127695
0.12764
0.127585
0.12753
0.127476
0.127423
0.127369
0.127316
0.127264
0.127211
0.127159
0.127108
0.127057
0.127006
0.126956
0.126906
0.126857
0.126808
0.126759
0.126711
0.126664
0.126617
0.12657
0.126524
0.126479
0.126434
0.12639
0.126346
0.126303
0.12626
0.126219
0.126177
0.126137
0.126097
0.126058
0.126019
0.125982
0.125945
0.125909
0.125873
0.125839
0.125805
0.125773
0.125741
0.12571
0.12568
0.125651
0.125623
0.125596
0.12557
0.125546
0.125522
0.125499
0.125478
0.125458
0.125439
0.125421
0.125404
0.125389
0.125375
0.125362
0.125351
0.125341
0.125332
0.125324
0.125318
0.125313
0.125308
0.125308
0.1
0.0999883
0.0999832
0.0999849
0.0999933
0.100008
0.10003
0.100058
0.100091
0.10013
0.100174
0.100223
0.100276
0.100333
0.100395
0.10046
0.100529
0.100601
0.100677
0.100757
0.10084
0.100928
0.10102
0.101117
0.101218
0.101325
0.101437
0.101555
0.101679
0.10181
0.101947
0.102091
0.102242
0.102401
0.102567
0.10274
0.102922
0.103111
0.103308
0.103514
0.103727
0.103949
0.104179
0.104418
0.104666
0.104922
0.105187
0.105462
0.105745
0.106038
0.10634
0.106652
0.106974
0.107305
0.107647
0.107999
0.108361
0.108734
0.109117
0.10951
0.109915
0.110329
0.110755
0.111191
0.111637
0.112094
0.112561
0.113038
0.113525
0.114022
0.114528
0.115043
0.115567
0.116099
0.116639
0.117187
0.117741
0.118303
0.11887
0.119443
0.12002
0.120602
0.121188
0.121776
0.122367
0.12296
0.123553
0.124147
0.12474
0.125332
0.125923
0.12651
0.127094
0.127674
0.128249
0.128819
0.129382
0.129938
0.130487
0.131027
0.131559
0.132081
0.132593
0.133095
0.133585
0.134065
0.134532
0.134987
0.13543
0.13586
0.136277
0.13668
0.13707
0.137446
0.137809
0.138157
0.138492
0.138813
0.13912
0.139413
0.139693
0.139959
0.140211
0.14045
0.140676
0.140889
0.141089
0.141276
0.141451
0.141614
0.141766
0.141906
0.142034
0.142152
0.142259
0.142356
0.142442
0.142519
0.142586
0.142644
0.142693
0.142734
0.142767
0.142791
0.142808
0.142817
0.142819
0.142814
0.142803
0.142786
0.142762
0.142733
0.142698
0.142657
0.142612
0.142562
0.142507
0.142448
0.142385
0.142318
0.142247
0.142173
0.142095
0.142014
0.14193
0.141844
0.141755
0.141663
0.141569
0.141473
0.141375
0.141275
0.141173
0.14107
0.140965
0.140859
0.140751
0.140643
0.140533
0.140423
0.140311
0.140199
0.140087
0.139973
0.13986
0.139746
0.139631
0.139516
0.139401
0.139286
0.139171
0.139056
0.138941
0.138825
0.13871
0.138595
0.138481
0.138366
0.138252
0.138138
0.138025
0.137911
0.137799
0.137686
0.137574
0.137463
0.137352
0.137241
0.137132
0.137022
0.136913
0.136805
0.136697
0.13659
0.136484
0.136378
0.136273
0.136168
0.136064
0.135961
0.135859
0.135757
0.135655
0.135555
0.135454
0.135355
0.135256
0.135158
0.135061
0.134964
0.134868
0.134772
0.134677
0.134583
0.134489
0.134396
0.134304
0.134212
0.134121
0.13403
0.13394
0.133851
0.133762
0.133674
0.133586
0.133499
0.133412
0.133326
0.133241
0.133156
0.133072
0.132988
0.132904
0.132822
0.132739
0.132657
0.132576
0.132495
0.132415
0.132335
0.132255
0.132176
0.132098
0.13202
0.131942
0.131865
0.131788
0.131712
0.131636
0.13156
0.131485
0.13141
0.131336
0.131262
0.131188
0.131115
0.131042
0.130969
0.130897
0.130825
0.130754
0.130683
0.130612
0.130542
0.130472
0.130402
0.130332
0.130263
0.130194
0.130126
0.130058
0.12999
0.129922
0.129855
0.129788
0.129721
0.129655
0.129589
0.129523
0.129458
0.129393
0.129328
0.129263
0.129199
0.129135
0.129071
0.129007
0.128944
0.128881
0.128819
0.128756
0.128694
0.128633
0.128571
0.12851
0.128449
0.128388
0.128328
0.128268
0.128208
0.128149
0.12809
0.128031
0.127972
0.127914
0.127856
0.127798
0.127741
0.127684
0.127627
0.127571
0.127515
0.127459
0.127404
0.127349
0.127294
0.12724
0.127186
0.127132
0.127079
0.127026
0.126974
0.126922
0.12687
0.126819
0.126768
0.126718
0.126668
0.126619
0.12657
0.126521
0.126473
0.126426
0.126379
0.126333
0.126287
0.126241
0.126197
0.126152
0.126109
0.126066
0.126024
0.125982
0.125941
0.125901
0.125861
0.125822
0.125784
0.125747
0.12571
0.125675
0.12564
0.125606
0.125573
0.12554
0.125509
0.125479
0.12545
0.125421
0.125394
0.125368
0.125343
0.125319
0.125296
0.125274
0.125253
0.125234
0.125216
0.125199
0.125183
0.125169
0.125156
0.125145
0.125134
0.125125
0.125117
0.125111
0.125106
0.125102
0.125102
0.1
0.0999884
0.0999834
0.0999851
0.0999935
0.100008
0.10003
0.100057
0.10009
0.100129
0.100173
0.100221
0.100274
0.10033
0.100391
0.100456
0.100524
0.100595
0.100671
0.10075
0.100833
0.10092
0.101011
0.101107
0.101208
0.101314
0.101425
0.101542
0.101666
0.101795
0.101931
0.102075
0.102225
0.102382
0.102547
0.10272
0.1029
0.103088
0.103285
0.103489
0.103702
0.103923
0.104152
0.10439
0.104637
0.104892
0.105157
0.10543
0.105713
0.106005
0.106307
0.106619
0.10694
0.107271
0.107613
0.107965
0.108327
0.1087
0.109084
0.109478
0.109883
0.110299
0.110725
0.111162
0.11161
0.112069
0.112538
0.113017
0.113506
0.114005
0.114514
0.115032
0.115558
0.116094
0.116637
0.117188
0.117747
0.118312
0.118883
0.11946
0.120042
0.120628
0.121218
0.121812
0.122407
0.123005
0.123603
0.124202
0.1248
0.125397
0.125992
0.126584
0.127173
0.127757
0.128337
0.12891
0.129478
0.130038
0.13059
0.131134
0.131669
0.132194
0.13271
0.133214
0.133707
0.134188
0.134658
0.135115
0.135559
0.13599
0.136407
0.136811
0.137202
0.137578
0.137941
0.138289
0.138623
0.138943
0.13925
0.139542
0.13982
0.140085
0.140335
0.140573
0.140797
0.141008
0.141206
0.141392
0.141565
0.141726
0.141875
0.142012
0.142139
0.142254
0.142358
0.142453
0.142537
0.142611
0.142676
0.142731
0.142778
0.142816
0.142846
0.142868
0.142882
0.142889
0.142888
0.142881
0.142867
0.142847
0.142821
0.142789
0.142752