# vtk DataFile Version 3.0
LBM Fluid Grid
ASCII
DATASET STRUCTURED_POINTS
DIMENSIONS 400 150 1
ORIGIN 0 0 0
SPACING 1 1 1
POINT_DATA 60000
SCALARS VelocityMagnitude double 1
LOOKUP_TABLE default
0.1
0.100001
0.100006
0.100016
0.100029
0.100046
0.100068
0.100094
0.100124
0.100159
0.100199
0.100242
0.100291
0.100344
0.100402
0.100465
0.100533
0.100606
0.100683
0.100766
0.100854
0.100947
0.101045
0.101149
0.101258
0.101373
0.101493
0.101619
0.101752
0.10189
0.102034
0.102185
0.102343
0.102507
0.102678
0.102856
0.103042
0.103235
0.103435
0.103643
0.103859
0.104083
0.104315
0.104556
0.104805
0.105063
0.10533
0.105606
0.105891
0.106185
0.106489
0.106802
0.107125
0.107457
0.107799
0.108151
0.108513
0.108885
0.109267
0.109658
0.11006
0.110472
0.110893
0.111325
0.111766
0.112216
0.112677
0.113146
0.113625
0.114112
0.114608
0.115112
0.115625
0.116145
0.116672
0.117206
0.117747
0.118294
0.118846
0.119404
0.119966
0.120532
0.121101
0.121673
0.122247
0.122823
0.1234
0.123977
0.124554
0.125129
0.125703
0.126275
0.126843
0.127407
0.127967
0.128522
0.129071
0.129614
0.130149
0.130677
0.131197
0.131708
0.13221
0.132702
0.133184
0.133656
0.134116
0.134565
0.135002
0.135427
0.13584
0.136241
0.136629
0.137004
0.137365
0.137714
0.13805
0.138372
0.138681
0.138977
0.13926
0.13953
0.139786
0.14003
0.140261
0.14048
0.140686
0.14088
0.141062
0.141232
0.14139
0.141537
0.141674
0.141799
0.141914
0.142018
0.142113
0.142197
0.142273
0.142339
0.142396
0.142445
0.142486
0.142518
0.142543
0.14256
0.14257
0.142574
0.14257
0.142561
0.142545
0.142523
0.142496
0.142464
0.142426
0.142384
0.142336
0.142285
0.142229
0.14217
0.142106
0.142039
0.141969
0.141895
0.141818
0.141739
0.141657
0.141572
0.141485
0.141396
0.141305
0.141211
0.141117
0.14102
0.140922
0.140822
0.140722
0.14062
0.140517
0.140413
0.140308
0.140202
0.140096
0.139989
0.139882
0.139774
0.139666
0.139557
0.139448
0.13934
0.13923
0.139121
0.139012
0.138903
0.138794
0.138685
0.138577
0.138468
0.13836
0.138252
0.138145
0.138037
0.137931
0.137824
0.137718
0.137613
0.137507
0.137403
0.137299
0.137195
0.137092
0.13699
0.136888
0.136786
0.136685
0.136585
0.136486
0.136387
0.136288
0.136191
0.136093
0.135997
0.135901
0.135806
0.135711
0.135617
0.135524
0.135431
0.135339
0.135247
0.135156
0.135066
0.134976
0.134887
0.134798
0.13471
0.134623
0.134536
0.13445
0.134365
0.13428
0.134195
0.134111
0.134028
0.133945
0.133863
0.133781
0.1337
0.13362
0.133539
0.13346
0.133381
0.133302
0.133224
0.133146
0.133069
0.132992
0.132916
0.13284
0.132765
0.13269
0.132615
0.132541
0.132468
0.132394
0.132321
0.132249
0.132177
0.132105
0.132034
0.131963
0.131892
0.131822
0.131752
0.131683
0.131614
0.131545
0.131477
0.131408
0.131341
0.131273
0.131206
0.131139
0.131073
0.131006
0.13094
0.130875
0.130809
0.130744
0.13068
0.130615
0.130551
0.130487
0.130423
0.13036
0.130297
0.130234
0.130171
0.130109
0.130047
0.129985
0.129923
0.129862
0.129801
0.12974
0.129679
0.129619
0.129559
0.129499
0.129439
0.12938
0.12932
0.129262
0.129203
0.129144
0.129086
0.129028
0.128971
0.128913
0.128856
0.128799
0.128742
0.128686
0.12863
0.128574
0.128518
0.128463
0.128408
0.128353
0.128299
0.128244
0.12819
0.128137
0.128083
0.12803
0.127978
0.127925
0.127873
0.127821
0.12777
0.127719
0.127668
0.127618
0.127568
0.127519
0.127469
0.127421
0.127372
0.127324
0.127277
0.12723
0.127184
0.127137
0.127092
0.127047
0.127002
0.126958
0.126915
0.126872
0.12683
0.126788
0.126747
0.126707
0.126667
0.126628
0.12659
0.126552
0.126516
0.12648
0.126444
0.12641
0.126376
0.126343
0.126311
0.12628
0.12625
0.126221
0.126193
0.126166
0.12614
0.126115
0.126091
0.126068
0.126046
0.126025
0.126006
0.125987
0.12597
0.125954
0.125939
0.125926
0.125913
0.125902
0.125893
0.125884
0.125877
0.12587
0.125865
0.125861
0.125861
0.1
0.100001
0.100006
0.100016
0.100029
0.100046
0.100068
0.100094
0.100124
0.100159
0.100198
0.100242
0.100291
0.100344
0.100402
0.100465
0.100533
0.100605
0.100683
0.100765
0.100853
0.100946
0.101044
0.101148
0.101257
0.101372
0.101492
0.101618
0.101751
0.101889
0.102033
0.102184
0.102342
0.102506
0.102677
0.102855
0.10304
0.103233
0.103433
0.103641
0.103857
0.104081
0.104314
0.104554
0.104803
0.105061
0.105328
0.105604
0.105889
0.106183
0.106487
0.1068
0.107122
0.107455
0.107797
0.108149
0.108511
0.108883
0.109265
0.109656
0.110058
0.11047
0.110891
0.111323
0.111764
0.112215
0.112675
0.113145
0.113623
0.114111
0.114607
0.115111
0.115624
0.116144
0.116672
0.117206
0.117747
0.118294
0.118847
0.119405
0.119967
0.120533
0.121103
0.121675
0.12225
0.122826
0.123403
0.123981
0.124558
0.125134
0.125708
0.126279
0.126848
0.127413
0.127973
0.128528
0.129077
0.12962
0.130156
0.130684
0.131204
0.131716
0.132218
0.13271
0.133192
0.133664
0.134124
0.134573
0.135011
0.135436
0.135849
0.136249
0.136637
0.137012
0.137374
0.137723
0.138058
0.138381
0.13869
0.138986
0.139268
0.139538
0.139795
0.140038
0.140269
0.140488
0.140694
0.140888
0.141069
0.141239
0.141398
0.141545
0.141681
0.141806
0.14192
0.142025
0.142119
0.142204
0.142279
0.142345
0.142402
0.142451
0.142491
0.142523
0.142548
0.142565
0.142575
0.142578
0.142575
0.142565
0.142549
0.142527
0.1425
0.142467
0.14243
0.142387
0.14234
0.142288
0.142232
0.142173
0.142109
0.142042
0.141971
0.141897
0.141821
0.141741
0.141659
0.141574
0.141487
0.141398
0.141306
0.141213
0.141118
0.141021
0.140923
0.140823
0.140722
0.14062
0.140517
0.140413
0.140308
0.140203
0.140096
0.139989
0.139882
0.139774
0.139665
0.139557
0.139448
0.139339
0.13923
0.13912
0.139011
0.138902
0.138793
0.138684
0.138575
0.138467
0.138358
0.13825
0.138143
0.138035
0.137928
0.137822
0.137716
0.13761
0.137505
0.1374
0.137296
0.137192
0.137089
0.136986
0.136884
0.136783
0.136682
0.136582
0.136482
0.136383
0.136284
0.136186
0.136089
0.135992
0.135896
0.135801
0.135706
0.135612
0.135519
0.135426
0.135333
0.135242
0.135151
0.13506
0.13497
0.134881
0.134793
0.134705
0.134617
0.13453
0.134444
0.134358
0.134273
0.134189
0.134105
0.134021
0.133938
0.133856
0.133774
0.133693
0.133612
0.133532
0.133452
0.133373
0.133294
0.133216
0.133138
0.133061
0.132984
0.132908
0.132832
0.132756
0.132681
0.132607
0.132533
0.132459
0.132385
0.132312
0.13224
0.132168
0.132096
0.132025
0.131954
0.131883
0.131813
0.131743
0.131673
0.131604
0.131535
0.131467
0.131398
0.131331
0.131263
0.131196
0.131129
0.131062
0.130996
0.13093
0.130864
0.130799
0.130734
0.130669
0.130604
0.13054
0.130476
0.130412
0.130348
0.130285
0.130222
0.13016
0.130097
0.130035
0.129973
0.129911
0.12985
0.129789
0.129728
0.129667
0.129607
0.129546
0.129486
0.129427
0.129367
0.129308
0.129249
0.12919
0.129132
0.129074
0.129016
0.128958
0.1289
0.128843
0.128786
0.128729
0.128673
0.128617
0.128561
0.128505
0.12845
0.128395
0.12834
0.128285
0.128231
0.128177
0.128123
0.12807
0.128017
0.127964
0.127911
0.127859
0.127808
0.127756
0.127705
0.127654
0.127604
0.127554
0.127504
0.127455
0.127406
0.127358
0.12731
0.127263
0.127216
0.127169
0.127123
0.127077
0.127032
0.126988
0.126944
0.1269
0.126858
0.126815
0.126774
0.126733
0.126692
0.126652
0.126613
0.126575
0.126537
0.126501
0.126464
0.126429
0.126395
0.126361
0.126328
0.126296
0.126265
0.126235
0.126206
0.126178
0.12615
0.126124
0.126099
0.126075
0.126052
0.12603
0.12601
0.12599
0.125972
0.125954
0.125938
0.125924
0.12591
0.125898
0.125887
0.125877
0.125868
0.125861
0.125855
0.125849
0.125845
0.125845
0.1
0.100001
0.100006
0.100016
0.100029
0.100046
0.100068
0.100094
0.100124
0.100159
0.100198
0.100242
0.10029
0.100344
0.100401
0.100464
0.100532
0.100604
0.100682
0.100764
0.100852
0.100945
0.101043
0.101146
0.101255
0.10137
0.10149
0.101616
0.101748
0.101886
0.10203
0.102181
0.102338
0.102502
0.102673
0.102851
0.103036
0.103229
0.103429
0.103637
0.103852
0.104076
0.104308
0.104549
0.104798
0.105055
0.105322
0.105598
0.105882
0.106177
0.10648
0.106793
0.107116
0.107448
0.10779
0.108142
0.108504
0.108876
0.109258
0.10965
0.110052
0.110464
0.110886
0.111317
0.111759
0.11221
0.112671
0.11314
0.11362
0.114108
0.114604
0.115109
0.115622
0.116143
0.116672
0.117207
0.117748
0.118296
0.11885
0.119408
0.119971
0.120539
0.121109
0.121682
0.122258
0.122835
0.123413
0.123992
0.124569
0.125146
0.125721
0.126294
0.126863
0.127429
0.12799
0.128546
0.129096
0.12964
0.130176
0.130705
0.131226
0.131738
0.13224
0.132733
0.133216
0.133688
0.134149
0.134598
0.135036
0.135461
0.135875
0.136275
0.136663
0.137038
0.1374
0.137749
0.138084
0.138407
0.138716
0.139011
0.139294
0.139563
0.13982
0.140063
0.140294
0.140512
0.140717
0.140911
0.141092
0.141262
0.14142
0.141566
0.141702
0.141826
0.141941
0.142044
0.142138
0.142222
0.142297
0.142363
0.142419
0.142468
0.142508
0.142539
0.142564
0.14258
0.14259
0.142593
0.142589
0.142578
0.142562
0.14254
0.142512
0.142479
0.142441
0.142398
0.14235
0.142298
0.142242
0.142181
0.142117
0.14205
0.141979
0.141905
0.141828
0.141748
0.141665
0.14158
0.141492
0.141402
0.141311
0.141217
0.141122
0.141025
0.140926
0.140826
0.140725
0.140622
0.140519
0.140414
0.140309
0.140203
0.140096
0.139989
0.139881
0.139773
0.139664
0.139555
0.139446
0.139336
0.139227
0.139117
0.139008
0.138898
0.138789
0.13868
0.13857
0.138462
0.138353
0.138245
0.138137
0.138029
0.137922
0.137815
0.137708
0.137602
0.137497
0.137391
0.137287
0.137183
0.137079
0.136976
0.136874
0.136772
0.136671
0.13657
0.13647
0.136371
0.136272
0.136174
0.136076
0.135979
0.135883
0.135787
0.135692
0.135598
0.135504
0.135411
0.135318
0.135226
0.135135
0.135044
0.134954
0.134864
0.134775
0.134687
0.134599
0.134512
0.134425
0.134339
0.134254
0.134169
0.134085
0.134001
0.133918
0.133835
0.133753
0.133672
0.13359
0.13351
0.13343
0.13335
0.133271
0.133193
0.133115
0.133037
0.13296
0.132883
0.132807
0.132731
0.132656
0.132581
0.132507
0.132433
0.132359
0.132286
0.132213
0.13214
0.132068
0.131997
0.131926
0.131855
0.131784
0.131714
0.131644
0.131575
0.131505
0.131437
0.131368
0.1313
0.131232
0.131165
0.131098
0.131031
0.130964
0.130898
0.130832
0.130766
0.130701
0.130636
0.130571
0.130507
0.130442
0.130378
0.130315
0.130251
0.130188
0.130125
0.130062
0.13
0.129938
0.129876
0.129814
0.129753
0.129692
0.129631
0.12957
0.12951
0.12945
0.12939
0.12933
0.129271
0.129212
0.129153
0.129094
0.129036
0.128977
0.12892
0.128862
0.128804
0.128747
0.12869
0.128634
0.128577
0.128521
0.128465
0.12841
0.128355
0.1283
0.128245
0.12819
0.128136
0.128082
0.128029
0.127976
0.127923
0.12787
0.127818
0.127766
0.127714
0.127663
0.127612
0.127562
0.127512
0.127462
0.127413
0.127364
0.127315
0.127267
0.12722
0.127173
0.127126
0.12708
0.127034
0.126989
0.126944
0.1269
0.126856
0.126813
0.126771
0.126729
0.126688
0.126648
0.126608
0.126569
0.12653
0.126492
0.126456
0.126419
0.126384
0.126349
0.126315
0.126283
0.126251
0.126219
0.126189
0.12616
0.126132
0.126104
0.126078
0.126053
0.126029
0.126006
0.125984
0.125963
0.125943
0.125925
0.125907
0.125891
0.125876
0.125863
0.12585
0.125839
0.125829
0.125821
0.125813
0.125807
0.125802
0.125798
0.125798
0.1
0.100001
0.100006
0.100016
0.100029
0.100046
0.100068
0.100094
0.100124
0.100158
0.100198
0.100241
0.10029
0.100343
0.1004
0.100463
0.10053
0.100602
0.10068
0.100762
0.100849
0.100942
0.10104
0.101143
0.101252
0.101366
0.101486
0.101612
0.101743
0.101881
0.102025
0.102175
0.102332
0.102496
0.102666
0.102844
0.103029
0.103221
0.103421
0.103628
0.103844
0.104067
0.104299
0.104539
0.104788
0.105045
0.105312
0.105587
0.105872
0.106166
0.106469
0.106782
0.107105
0.107437
0.107779
0.108131
0.108493
0.108865
0.109247
0.109639
0.110042
0.110454
0.110876
0.111308
0.11175
0.112202
0.112663
0.113133
0.113613
0.114102
0.1146
0.115106
0.11562
0.116142
0.116671
0.117207
0.11775
0.118299
0.118854
0.119414
0.119979
0.120547
0.121119
0.121694
0.122271
0.12285
0.12343
0.124009
0.124589
0.125167
0.125744
0.126318
0.126889
0.127456
0.128018
0.128576
0.129127
0.129672
0.13021
0.13074
0.131262
0.131775
0.132279
0.132772
0.133256
0.133728
0.13419
0.13464
0.135078
0.135504
0.135918
0.136318
0.136707
0.137082
0.137444
0.137792
0.138128
0.13845
0.138758
0.139054
0.139336
0.139605
0.139861
0.140104
0.140334
0.140552
0.140757
0.140949
0.14113
0.141299
0.141456
0.141602
0.141737
0.141861
0.141974
0.142077
0.14217
0.142254
0.142328
0.142393
0.142448
0.142496
0.142535
0.142566
0.142589
0.142605
0.142614
0.142616
0.142611
0.1426
0.142583
0.14256
0.142532
0.142498
0.142459
0.142415
0.142367
0.142314
0.142257
0.142196
0.142131
0.142063
0.141991
0.141917
0.141839
0.141758
0.141675
0.141589
0.141501
0.14141
0.141318
0.141224
0.141128
0.14103
0.140931
0.14083
0.140728
0.140625
0.140521
0.140416
0.14031
0.140204
0.140096
0.139988
0.13988
0.139771
0.139662
0.139552
0.139442
0.139332
0.139222
0.139112
0.139002
0.138892
0.138782
0.138672
0.138562
0.138453
0.138344
0.138235
0.138126
0.138018
0.13791
0.137802
0.137695
0.137589
0.137483
0.137377
0.137272
0.137167
0.137063
0.13696
0.136857
0.136754
0.136653
0.136551
0.136451
0.136351
0.136251
0.136153
0.136054
0.135957
0.13586
0.135764
0.135668
0.135573
0.135479
0.135385
0.135292
0.135199
0.135107
0.135016
0.134925
0.134835
0.134746
0.134657
0.134569
0.134481
0.134394
0.134307
0.134221
0.134136
0.134051
0.133967
0.133883
0.1338
0.133717
0.133635
0.133554
0.133473
0.133392
0.133312
0.133233
0.133154
0.133075
0.132997
0.132919
0.132842
0.132765
0.132689
0.132613
0.132538
0.132463
0.132389
0.132315
0.132241
0.132168
0.132095
0.132022
0.13195
0.131878
0.131807
0.131736
0.131665
0.131595
0.131525
0.131456
0.131387
0.131318
0.131249
0.131181
0.131113
0.131045
0.130978
0.130911
0.130845
0.130778
0.130712
0.130646
0.130581
0.130516
0.130451
0.130386
0.130322
0.130258
0.130194
0.13013
0.130067
0.130004
0.129941
0.129879
0.129817
0.129755
0.129693
0.129632
0.12957
0.129509
0.129449
0.129388
0.129328
0.129268
0.129208
0.129149
0.12909
0.129031
0.128972
0.128914
0.128855
0.128797
0.12874
0.128682
0.128625
0.128568
0.128512
0.128455
0.128399
0.128343
0.128288
0.128232
0.128177
0.128123
0.128068
0.128014
0.127961
0.127907
0.127854
0.127801
0.127749
0.127697
0.127645
0.127593
0.127542
0.127492
0.127441
0.127391
0.127342
0.127293
0.127244
0.127196
0.127148
0.127101
0.127054
0.127007
0.126961
0.126916
0.126871
0.126827
0.126783
0.12674
0.126697
0.126655
0.126614
0.126573
0.126533
0.126494
0.126455
0.126417
0.12638
0.126344
0.126308
0.126274
0.12624
0.126206
0.126174
0.126143
0.126113
0.126083
0.126055
0.126027
0.126001
0.125975
0.125951
0.125928
0.125906
0.125885
0.125865
0.125847
0.125829
0.125813
0.125798
0.125784
0.125772
0.125761
0.125751
0.125742
0.125734
0.125728
0.125723
0.125719
0.125719
0.1
0.100001
0.100006
0.100016
0.100029
0.100046
0.100067
0.100093
0.100123
0.100158
0.100197
0.10024
0.100288
0.100341
0.100399
0.100461
0.100528
0.1006
0.100677
0.100759
0.100846
0.100938
0.101036
0.101139
0.101247
0.101361
0.10148
0.101605
0.101737
0.101874
0.102018
0.102168
0.102324
0.102487
0.102657
0.102834
0.103019
0.10321
0.10341
0.103617
0.103832
0.104055
0.104286
0.104526
0.104774
0.105032
0.105298
0.105573
0.105857
0.106151
0.106454
0.106767
0.107089
0.107421
0.107763
0.108115
0.108477
0.10885
0.109232
0.109624
0.110027
0.11044
0.110862
0.111295
0.111738
0.11219
0.112652
0.113124
0.113604
0.114094
0.114593
0.1151
0.115616
0.116139
0.11667
0.117208
0.117753
0.118304
0.11886
0.119422
0.119989
0.120559
0.121133
0.12171
0.12229
0.122871
0.123452
0.124035
0.124616
0.125197
0.125776
0.126352
0.126925
0.127494
0.128058
0.128618
0.129171
0.129718
0.130257
0.130789
0.131312
0.131827
0.132332
0.132827
0.133311
0.133785
0.134248
0.134698
0.135137
0.135564
0.135978
0.136379
0.136767
0.137142
0.137504
0.137853
0.138188
0.13851
0.138818
0.139113
0.139395
0.139664
0.139919
0.140161
0.140391
0.140607
0.140812
0.141003
0.141183
0.141351
0.141507
0.141652
0.141786
0.141909
0.142021
0.142123
0.142215
0.142298
0.14237
0.142434
0.142489
0.142535
0.142573
0.142603
0.142625
0.14264
0.142648
0.142649
0.142643
0.142631
0.142613
0.142589
0.142559
0.142524
0.142484
0.142439
0.14239
0.142336
0.142278
0.142216
0.142151
0.142081
0.142009
0.141933
0.141854
0.141773
0.141688
0.141602
0.141512
0.141421
0.141328
0.141233
0.141136
0.141037
0.140937
0.140836
0.140733
0.140629
0.140524
0.140418
0.140311
0.140204
0.140096
0.139987
0.139878
0.139768
0.139658
0.139547
0.139437
0.139326
0.139215
0.139104
0.138993
0.138882
0.138771
0.138661
0.13855
0.13844
0.13833
0.13822
0.138111
0.138002
0.137893
0.137785
0.137677
0.137569
0.137462
0.137356
0.13725
0.137145
0.13704
0.136936
0.136832
0.136729
0.136626
0.136524
0.136423
0.136322
0.136222
0.136122
0.136023
0.135925
0.135827
0.13573
0.135634
0.135538
0.135443
0.135348
0.135254
0.135161
0.135068
0.134976
0.134885
0.134794
0.134704
0.134614
0.134525
0.134437
0.134349
0.134262
0.134175
0.134089
0.134003
0.133918
0.133834
0.13375
0.133667
0.133584
0.133502
0.13342
0.133339
0.133258
0.133178
0.133098
0.133019
0.13294
0.132862
0.132784
0.132707
0.13263
0.132553
0.132477
0.132402
0.132326
0.132252
0.132177
0.132103
0.13203
0.131957
0.131884
0.131812
0.13174
0.131668
0.131597
0.131526
0.131456
0.131386
0.131316
0.131246
0.131177
0.131108
0.13104
0.130972
0.130904
0.130837
0.130769
0.130702
0.130636
0.13057
0.130504
0.130438
0.130372
0.130307
0.130242
0.130178
0.130114
0.13005
0.129986
0.129922
0.129859
0.129796
0.129733
0.129671
0.129609
0.129547
0.129485
0.129424
0.129363
0.129302
0.129241
0.129181
0.129121
0.129061
0.129001
0.128942
0.128883
0.128824
0.128765
0.128707
0.128649
0.128591
0.128533
0.128476
0.128419
0.128362
0.128306
0.12825
0.128194
0.128138
0.128083
0.128028
0.127973
0.127919
0.127865
0.127811
0.127757
0.127704
0.127651
0.127599
0.127547
0.127495
0.127444
0.127393
0.127342
0.127292
0.127242
0.127193
0.127144
0.127095
0.127047
0.127
0.126952
0.126906
0.12686
0.126814
0.126769
0.126724
0.12668
0.126637
0.126594
0.126552
0.12651
0.126469
0.126429
0.126389
0.12635
0.126312
0.126275
0.126238
0.126202
0.126167
0.126133
0.1261
0.126067
0.126036
0.126005
0.125976
0.125947
0.125919
0.125893
0.125867
0.125843
0.125819
0.125797
0.125776
0.125756
0.125737
0.125719
0.125703
0.125688
0.125674
0.125661
0.12565
0.12564
0.125631
0.125624
0.125617
0.125612
0.125608
0.125608
0.1
0.100001
0.100006
0.100015
0.100029
0.100046
0.100067
0.100093
0.100123
0.100157
0.100196
0.100239
0.100287
0.100339
0.100397
0.100458
0.100525
0.100597
0.100673
0.100755
0.100842
0.100933
0.10103
0.101133
0.101241
0.101354
0.101473
0.101598
0.101728
0.101865
0.102008
0.102158
0.102313
0.102476
0.102645
0.102822
0.103006
0.103197
0.103396
0.103602
0.103816
0.104039
0.10427
0.104509
0.104757
0.105014
0.105279
0.105554
0.105838
0.106131
0.106434
0.106747
0.107069
0.107401
0.107743
0.108095
0.108457
0.10883
0.109212
0.109605
0.110008
0.110421
0.110844
0.111278
0.111721
0.112175
0.112638
0.113111
0.113593
0.114084
0.114584
0.115093
0.115611
0.116136
0.116669
0.117209
0.117756
0.118309
0.118868
0.119432
0.120002
0.120575
0.121152
0.121731
0.122313
0.122897
0.123482
0.124067
0.124651
0.125235
0.125816
0.126395
0.126971
0.127543
0.12811
0.128672
0.129227
0.129777
0.130318
0.130852
0.131378
0.131894
0.132401
0.132897
0.133383
0.133858
0.134322
0.134774
0.135213
0.13564
0.136055
0.136457
0.136845
0.137221
0.137583
0.137931
0.138266
0.138588
0.138896
0.13919
0.139471
0.139739
0.139993
0.140235
0.140463
0.140679
0.140882
0.141073
0.141251
0.141418
0.141573
0.141717
0.141849
0.141971
0.142082
0.142182
0.142273
0.142354
0.142425
0.142487
0.142541
0.142585
0.142622
0.14265
0.142671
0.142685
0.142691
0.14269
0.142683
0.14267
0.14265
0.142625
0.142594
0.142558
0.142516
0.14247
0.142419
0.142364
0.142305
0.142242
0.142175
0.142104
0.14203
0.141953
0.141873
0.14179
0.141705
0.141617
0.141527
0.141434
0.14134
0.141243
0.141145
0.141046
0.140944
0.140842
0.140738
0.140633
0.140527
0.14042
0.140312
0.140203
0.140094
0.139984
0.139874
0.139763
0.139652
0.13954
0.139428
0.139317
0.139205
0.139093
0.138981
0.138869
0.138757
0.138645
0.138533
0.138422
0.138311
0.1382
0.13809
0.13798
0.13787
0.137761
0.137652
0.137543
0.137435
0.137328
0.137221
0.137114
0.137009
0.136903
0.136798
0.136694
0.136591
0.136488
0.136385
0.136284
0.136182
0.136082
0.135982
0.135883
0.135784
0.135686
0.135588
0.135492
0.135395
0.1353
0.135205
0.135111
0.135017
0.134924
0.134832
0.13474
0.134649
0.134558
0.134468
0.134379
0.13429
0.134202
0.134114
0.134027
0.133941
0.133855
0.13377
0.133685
0.133601
0.133517
0.133434
0.133351
0.133269
0.133187
0.133106
0.133026
0.132945
0.132866
0.132787
0.132708
0.13263
0.132552
0.132475
0.132398
0.132321
0.132245
0.13217
0.132095
0.13202
0.131946
0.131872
0.131798
0.131725
0.131652
0.13158
0.131508
0.131437
0.131365
0.131294
0.131224
0.131154
0.131084
0.131014
0.130945
0.130876
0.130808
0.13074
0.130672
0.130604
0.130537
0.13047
0.130403
0.130337
0.130271
0.130205
0.130139
0.130074
0.130009
0.129945
0.12988
0.129816
0.129752
0.129689
0.129626
0.129563
0.1295
0.129437
0.129375
0.129313
0.129251
0.12919
0.129129
0.129068
0.129007
0.128947
0.128887
0.128827
0.128767
0.128708
0.128649
0.12859
0.128531
0.128473
0.128415
0.128357
0.1283
0.128242
0.128186
0.128129
0.128073
0.128017
0.127961
0.127905
0.12785
0.127795
0.127741
0.127687
0.127633
0.127579
0.127526
0.127473
0.127421
0.127369
0.127317
0.127265
0.127214
0.127164
0.127114
0.127064
0.127015
0.126966
0.126917
0.126869
0.126822
0.126775
0.126728
0.126682
0.126637
0.126592
0.126548
0.126504
0.126461
0.126418
0.126376
0.126335
0.126294
0.126254
0.126215
0.126177
0.126139
0.126102
0.126066
0.126031
0.125996
0.125963
0.12593
0.125898
0.125867
0.125837
0.125808
0.12578
0.125753
0.125727
0.125703
0.125679
0.125657
0.125635
0.125615
0.125596
0.125578
0.125562
0.125546
0.125532
0.125519
0.125508
0.125498
0.125489
0.125481
0.125475
0.12547
0.125465
0.125465
0.1
0.100001
0.100006
0.100015
0.100028
0.100045
0.100067
0.100092
0.100122
0.100156
0.100194
0.100237
0.100285
0.100337
0.100394
0.100456
0.100522
0.100593
0.100669
0.10075
0.100836
0.100928
0.101024
0.101126
0.101233
0.101346
0.101464
0.101588
0.101718
0.101854
0.101997
0.102145
0.1023
0.102462
0.102631
0.102807
0.10299
0.10318
0.103378
0.103584
0.103798
0.104019
0.10425
0.104488
0.104735
0.104991
0.105257
0.105531
0.105814
0.106107
0.10641
0.106722
0.107044
0.107376
0.107718
0.10807
0.108432
0.108805
0.109188
0.109581
0.109985
0.110398
0.110822
0.111257
0.111701
0.112156
0.11262
0.113095
0.113578
0.114071
0.114574
0.115085
0.115604
0.116132
0.116667
0.11721
0.117759
0.118315
0.118877
0.119445
0.120017
0.120593
0.121174
0.121757
0.122342
0.122929
0.123518
0.124106
0.124694
0.125281
0.125866
0.126448
0.127028
0.127603
0.128173
0.128738
0.129297
0.129849
0.130393
0.13093
0.131457
0.131976
0.132485
0.132983
0.133471
0.133948
0.134413
0.134866
0.135306
0.135735
0.13615
0.136552
0.136941
0.137317
0.137679
0.138027
0.138362
0.138683
0.13899
0.139284
0.139564
0.139831
0.140085
0.140325
0.140552
0.140767
0.140968
0.141158
0.141335
0.1415
0.141653
0.141795
0.141926
0.142046
0.142155
0.142254
0.142343
0.142422
0.142491
0.142552
0.142604
0.142647
0.142681
0.142708
0.142727
0.142739
0.142743
0.142741
0.142732
0.142717
0.142695
0.142668
0.142636
0.142598
0.142555
0.142507
0.142454
0.142398
0.142337
0.142272
0.142203
0.142131
0.142056
0.141977
0.141896
0.141811
0.141724
0.141635
0.141543
0.141449
0.141353
0.141255
0.141156
0.141055
0.140952
0.140848
0.140743
0.140636
0.140529
0.14042
0.140311
0.140201
0.14009
0.139979
0.139867
0.139755
0.139643
0.13953
0.139417
0.139304
0.13919
0.139077
0.138964
0.13885
0.138737
0.138624
0.138511
0.138399
0.138286
0.138174
0.138062
0.137951
0.13784
0.137729
0.137619
0.13751
0.1374
0.137292
0.137183
0.137076
0.136969
0.136862
0.136756
0.136651
0.136546
0.136441
0.136338
0.136235
0.136132
0.136031
0.135929
0.135829
0.135729
0.13563
0.135531
0.135433
0.135336
0.135239
0.135143
0.135048
0.134953
0.134858
0.134765
0.134672
0.13458
0.134488
0.134397
0.134306
0.134216
0.134127
0.134038
0.13395
0.133862
0.133775
0.133689
0.133603
0.133518
0.133433
0.133349
0.133265
0.133182
0.133099
0.133017
0.132935
0.132854
0.132773
0.132693
0.132613
0.132534
0.132455
0.132377
0.132299
0.132222
0.132145
0.132068
0.131992
0.131916
0.131841
0.131766
0.131692
0.131618
0.131544
0.131471
0.131398
0.131325
0.131253
0.131181
0.13111
0.131039
0.130968
0.130898
0.130828
0.130758
0.130689
0.13062
0.130551
0.130483
0.130414
0.130347
0.130279
0.130212
0.130145
0.130079
0.130012
0.129946
0.129881
0.129815
0.12975
0.129685
0.129621
0.129557
0.129493
0.129429
0.129365
0.129302
0.129239
0.129177
0.129114
0.129052
0.12899
0.128929
0.128867
0.128806
0.128746
0.128685
0.128625
0.128565
0.128505
0.128446
0.128387
0.128328
0.128269
0.128211
0.128153
0.128095
0.128038
0.12798
0.127924
0.127867
0.127811
0.127755
0.127699
0.127644
0.127589
0.127534
0.12748
0.127426
0.127372
0.127319
0.127266
0.127213
0.127161
0.127109
0.127058
0.127007
0.126956
0.126906
0.126856
0.126807
0.126758
0.126709
0.126661
0.126614
0.126567
0.126521
0.126475
0.12643
0.126385
0.126341
0.126297
0.126254
0.126212
0.12617
0.126129
0.126089
0.126049
0.126011
0.125973
0.125935
0.125899
0.125863
0.125828
0.125794
0.125761
0.125729
0.125698
0.125667
0.125638
0.12561
0.125583
0.125557
0.125531
0.125507
0.125485
0.125463
0.125443
0.125423
0.125405
0.125388
0.125373
0.125359
0.125346
0.125334
0.125324
0.125315
0.125307
0.1253
0.125295
0.125291
0.125291
0.1
0.100001
0.100006
0.100015
0.100028
0.100045
0.100066
0.100091
0.100121
0.100155
0.100193
0.100236
0.100283
0.100335
0.100391
0.100452
0.100518
0.100589
0.100664
0.100745
0.10083
0.100921
0.101016
0.101117
0.101224
0.101336
0.101453
0.101577
0.101706
0.101841
0.101983
0.102131
0.102285
0.102446
0.102614
0.102789
0.102971
0.10316
0.103357
0.103562
0.103775
0.103996
0.104225
0.104463
0.10471
0.104965
0.10523
0.105503
0.105786
0.106079
0.106381
0.106693
0.107014
0.107346
0.107688
0.10804
0.108403
0.108775
0.109159
0.109552
0.109956
0.110371
0.110796
0.111232
0.111677
0.112133
0.112599
0.113075
0.113561
0.114056
0.11456
0.115074
0.115596
0.116126
0.116664
0.11721
0.117763
0.118323
0.118888
0.119459
0.120035
0.120615
0.121199
0.121787
0.122376
0.122968
0.12356
0.124153
0.124745
0.125336
0.125925
0.126511
0.127095
0.127673
0.128248
0.128816
0.129378
0.129934
0.130482
0.131021
0.131552
0.132073
0.132584
0.133085
0.133575
0.134054
0.13452
0.134975
0.135417
0.135846
0.136262
0.136665
0.137054
0.13743
0.137792
0.13814
0.138475
0.138795
0.139102
0.139395
0.139674
0.13994
0.140192
0.140431
0.140657
0.14087
0.14107
0.141258
0.141433
0.141596
0.141748
0.141888
0.142017
0.142134
0.142242
0.142338
0.142425
0.142502
0.14257
0.142628
0.142677
0.142718
0.142751
0.142775
0.142792
0.142802
0.142804
0.1428
0.142789
0.142771
0.142748
0.142719
0.142684
0.142644
0.142599
0.142549
0.142495
0.142436
0.142373
0.142307
0.142236
0.142162
0.142085
0.142004
0.141921
0.141835
0.141746
0.141655
0.141561
0.141465
0.141368
0.141268
0.141167
0.141064
0.140959
0.140854
0.140747
0.140639
0.140529
0.140419
0.140308
0.140197
0.140084
0.139971
0.139858
0.139744
0.13963
0.139516
0.139401
0.139286
0.139171
0.139056
0.138941
0.138827
0.138712
0.138597
0.138483
0.138369
0.138255
0.138141
0.138028
0.137915
0.137802
0.13769
0.137578
0.137467
0.137356
0.137246
0.137136
0.137027
0.136919
0.136811
0.136703
0.136596
0.13649
0.136384
0.136279
0.136175
0.136071
0.135967
0.135865
0.135763
0.135662
0.135561
0.135461
0.135361
0.135263
0.135164
0.135067
0.13497
0.134874
0.134778
0.134683
0.134589
0.134495
0.134402
0.13431
0.134218
0.134126
0.134036
0.133946
0.133856
0.133767
0.133679
0.133591
0.133504
0.133417
0.133331
0.133246
0.133161
0.133076
0.132992
0.132909
0.132826
0.132744
0.132662
0.13258
0.132499
0.132419
0.132339
0.132259
0.13218
0.132102
0.132024
0.131946
0.131869
0.131792
0.131715
0.131639
0.131564
0.131489
0.131414
0.13134
0.131266
0.131192
0.131119
0.131046
0.130973
0.130901
0.13083
0.130758
0.130687
0.130616
0.130546
0.130476
0.130406
0.130337
0.130268
0.130199
0.130131
0.130063
0.129995
0.129928
0.12986
0.129793
0.129727
0.129661
0.129595
0.129529
0.129464
0.129398
0.129334
0.129269
0.129205
0.129141
0.129077
0.129014
0.128951
0.128888
0.128825
0.128763
0.128701
0.128639
0.128578
0.128516
0.128455
0.128395
0.128334
0.128274
0.128214
0.128155
0.128096
0.128037
0.127978
0.12792
0.127861
0.127804
0.127746
0.127689
0.127632
0.127576
0.127519
0.127463
0.127408
0.127353
0.127298
0.127243
0.127189
0.127135
0.127081
0.127028
0.126976
0.126923
0.126871
0.12682
0.126769
0.126718
0.126668
0.126618
0.126568
0.12652
0.126471
0.126423
0.126376
0.126329
0.126283
0.126237
0.126192
0.126147
0.126103
0.12606
0.126017
0.125975
0.125934
0.125893
0.125853
0.125814
0.125775
0.125737
0.1257
0.125664
0.125629
0.125595
0.125561
0.125529
0.125497
0.125466
0.125437
0.125408
0.125381
0.125354
0.125329
0.125304
0.125281
0.125259
0.125238
0.125219
0.1252
0.125183
0.125167
0.125153
0.12514
0.125128
0.125117
0.125108
0.1251
0.125094
0.125089
0.125084
0.125084
0.1
0.100001
0.100006
0.100015
0.100028
0.100045
0.100066
0.100091
0.10012
0.100153
0.100191
0.100233
0.10028
0.100332
0.100387
0.100448
0.100513
0.100583
0.100658
0.100738
0.100823
0.100913
0.101008
0.101108
0.101213
0.101325
0.101441
0.101564
0.101692
0.101826
0.101967
0.102114
0.102267
0.102427
0.102594
0.102768
0.102949
0.103137
0.103333
0.103537
0.103749
0.103969
0.104198
0.104434
0.10468
0.104935
0.105198
0.105471
0.105753
0.106045
0.106347
0.106658
0.10698
0.107311
0.107653
0.108005
0.108368
0.108741
0.109125
0.109519
0.109924
0.110339
0.110765
0.111202
0.111649
0.112107
0.112574
0.113052
0.11354
0.114038
0.114545
0.115061
0.115586
0.116119
0.116661
0.11721
0.117767
0.11833
0.1189
0.119475
0.120056
0.12064
0.121229
0.121821
0.122415
0.123011
0.123608
0.124206
0.124803
0.125399
0.125993
0.126584
0.127172
0.127755
0.128334
0.128907
0.129473
0.130033
0.130584
0.131127
0.131661
0.132186
0.1327
0.133203
0.133696
0.134176
0.134645
0.135101
0.135545
0.135975
0.136392
0.136795
0.137185
0.137561
0.137923
0.138271
0.138605
0.138925
0.139231
0.139523
0.139801
0.140066
0.140316
0.140554
0.140778
0.140989
0.141187
0.141373
0.141546
0.141707
0.141856
0.141994
0.142121
0.142236
0.142341
0.142435
0.14252
0.142594
0.142659
0.142715
0.142762
0.1428
0.14283
0.142852
0.142867
0.142874
0.142873
0.142866
0.142853
0.142833
0.142807
0.142776
0.142739
0.142696
0.142649
0.142597
0.14254
0.142479