# vtk DataFile Version 3.0
LBM Fluid Grid
ASCII
DATASET STRUCTURED_POINTS
DIMENSIONS 400 150 1
ORIGIN 0 0 0
SPACING 1 1 1
POINT_DATA 60000
SCALARS VelocityMagnitude double 1
LOOKUP_TABLE default
0.1
0.100008
0.100027
0.100056
0.100093
0.100138
0.100188
0.100242
0.1003
0.10036
0.100421
0.100484
0.100546
0.10061
0.100673
0.100737
0.100801
0.100867
0.100935
0.101006
0.10108
0.101159
0.101242
0.101331
0.101425
0.101527
0.101636
0.101752
0.101876
0.102008
0.102148
0.102295
0.102451
0.102615
0.102787
0.102966
0.103153
0.103347
0.103549
0.103758
0.103974
0.104198
0.104429
0.104668
0.104914
0.105168
0.105429
0.105699
0.105978
0.106265
0.106561
0.106866
0.107181
0.107505
0.107839
0.108183
0.108537
0.108901
0.109276
0.109661
0.110056
0.110462
0.110878
0.111304
0.111741
0.112187
0.112643
0.113108
0.113583
0.114066
0.114558
0.115059
0.115567
0.116083
0.116606
0.117136
0.117673
0.118215
0.118763
0.119316
0.119873
0.120435
0.120999
0.121567
0.122136
0.122708
0.12328
0.123853
0.124425
0.124997
0.125567
0.126135
0.1267
0.127261
0.127818
0.12837
0.128917
0.129457
0.129991
0.130518
0.131036
0.131546
0.132047
0.132538
0.133019
0.133489
0.133949
0.134398
0.134834
0.135259
0.135672
0.136072
0.136459
0.136834
0.137196
0.137544
0.13788
0.138202
0.138511
0.138807
0.13909
0.13936
0.139617
0.139861
0.140093
0.140312
0.140518
0.140713
0.140895
0.141066
0.141226
0.141374
0.141511
0.141637
0.141753
0.141859
0.141955
0.142041
0.142117
0.142185
0.142243
0.142293
0.142335
0.142369
0.142395
0.142413
0.142425
0.142429
0.142427
0.142418
0.142403
0.142383
0.142356
0.142325
0.142288
0.142246
0.142199
0.142148
0.142093
0.142034
0.141971
0.141904
0.141834
0.141761
0.141685
0.141605
0.141524
0.141439
0.141353
0.141264
0.141173
0.14108
0.140985
0.140889
0.140791
0.140692
0.140592
0.14049
0.140387
0.140284
0.140179
0.140074
0.139968
0.139861
0.139754
0.139646
0.139538
0.13943
0.139321
0.139213
0.139104
0.138995
0.138885
0.138776
0.138667
0.138559
0.13845
0.138341
0.138233
0.138125
0.138017
0.137909
0.137802
0.137696
0.137589
0.137483
0.137378
0.137273
0.137168
0.137064
0.13696
0.136857
0.136754
0.136652
0.136551
0.13645
0.136349
0.136249
0.13615
0.136051
0.135953
0.135855
0.135758
0.135662
0.135566
0.13547
0.135375
0.135281
0.135187
0.135094
0.135001
0.134909
0.134817
0.134726
0.134635
0.134545
0.134456
0.134367
0.134278
0.13419
0.134103
0.134016
0.133929
0.133843
0.133757
0.133672
0.133587
0.133503
0.133419
0.133335
0.133252
0.13317
0.133087
0.133005
0.132924
0.132843
0.132762
0.132682
0.132602
0.132522
0.132443
0.132364
0.132285
0.132207
0.132129
0.132051
0.131974
0.131897
0.13182
0.131744
0.131668
0.131592
0.131517
0.131441
0.131367
0.131292
0.131217
0.131143
0.131069
0.130996
0.130922
0.130849
0.130776
0.130704
0.130631
0.130559
0.130487
0.130416
0.130344
0.130273
0.130202
0.130131
0.13006
0.12999
0.12992
0.12985
0.12978
0.12971
0.12964
0.129571
0.129502
0.129433
0.129364
0.129295
0.129226
0.129158
0.12909
0.129021
0.128953
0.128885
0.128817
0.12875
0.128682
0.128614
0.128547
0.12848
0.128412
0.128345
0.128278
0.128211
0.128144
0.128077
0.12801
0.127944
0.127877
0.127811
0.127744
0.127678
0.127612
0.127545
0.127479
0.127413
0.127347
0.127282
0.127216
0.12715
0.127085
0.12702
0.126954
0.126889
0.126825
0.12676
0.126695
0.126631
0.126567
0.126503
0.126439
0.126376
0.126313
0.12625
0.126187
0.126125
0.126063
0.126001
0.12594
0.125879
0.125818
0.125758
0.125699
0.12564
0.125581
0.125523
0.125466
0.125409
0.125353
0.125297
0.125242
0.125188
0.125135
0.125083
0.125031
0.124981
0.124931
0.124882
0.124834
0.124788
0.124742
0.124698
0.124655
0.124614
0.124573
0.124534
0.124497
0.124461
0.124427
0.124394
0.124363
0.124334
0.124307
0.124281
0.124258
0.124237
0.124217
0.1242
0.124185
0.124172
0.124161
0.124153
0.124146
0.124146
0.1
0.100008
0.100027
0.100056
0.100093
0.100138
0.100188
0.100242
0.1003
0.10036
0.100422
0.100484
0.100547
0.10061
0.100673
0.100737
0.100802
0.100868
0.100936
0.101007
0.101081
0.101159
0.101243
0.101331
0.101426
0.101528
0.101637
0.101753
0.101877
0.102009
0.102149
0.102297
0.102453
0.102616
0.102788
0.102967
0.103154
0.103349
0.103551
0.10376
0.103976
0.1042
0.104431
0.10467
0.104916
0.10517
0.105432
0.105702
0.10598
0.106267
0.106563
0.106868
0.107183
0.107507
0.107841
0.108185
0.108539
0.108903
0.109278
0.109663
0.110058
0.110464
0.11088
0.111306
0.111742
0.112188
0.112644
0.113109
0.113584
0.114067
0.114559
0.115059
0.115568
0.116083
0.116607
0.117136
0.117673
0.118215
0.118762
0.119315
0.119872
0.120433
0.120997
0.121564
0.122134
0.122705
0.123277
0.123849
0.124421
0.124993
0.125562
0.12613
0.126694
0.127255
0.127812
0.128364
0.128911
0.129451
0.129984
0.130511
0.131029
0.131538
0.132039
0.13253
0.133011
0.133481
0.133941
0.134389
0.134826
0.135251
0.135663
0.136063
0.136451
0.136825
0.137187
0.137536
0.137871
0.138194
0.138503
0.138799
0.139082
0.139352
0.139609
0.139853
0.140085
0.140304
0.140511
0.140705
0.140888
0.141059
0.141218
0.141367
0.141504
0.14163
0.141746
0.141852
0.141948
0.142034
0.142111
0.142179
0.142238
0.142288
0.14233
0.142364
0.14239
0.142408
0.14242
0.142425
0.142422
0.142414
0.142399
0.142379
0.142352
0.142321
0.142284
0.142242
0.142196
0.142145
0.14209
0.142031
0.141968
0.141902
0.141832
0.141759
0.141682
0.141603
0.141522
0.141437
0.141351
0.141262
0.141171
0.141079
0.140984
0.140888
0.14079
0.140691
0.140591
0.140489
0.140387
0.140283
0.140179
0.140074
0.139968
0.139861
0.139754
0.139647
0.139539
0.139431
0.139322
0.139213
0.139105
0.138996
0.138887
0.138778
0.138669
0.13856
0.138451
0.138343
0.138235
0.138127
0.138019
0.137912
0.137805
0.137698
0.137592
0.137486
0.13738
0.137275
0.137171
0.137067
0.136963
0.13686
0.136758
0.136656
0.136554
0.136454
0.136353
0.136253
0.136154
0.136055
0.135957
0.13586
0.135763
0.135666
0.13557
0.135475
0.13538
0.135286
0.135192
0.135099
0.135006
0.134914
0.134823
0.134732
0.134641
0.134551
0.134462
0.134373
0.134284
0.134197
0.134109
0.134022
0.133936
0.13385
0.133764
0.133679
0.133594
0.13351
0.133426
0.133343
0.13326
0.133177
0.133095
0.133013
0.132932
0.132851
0.13277
0.13269
0.13261
0.13253
0.132451
0.132372
0.132294
0.132216
0.132138
0.13206
0.131983
0.131906
0.13183
0.131753
0.131677
0.131602
0.131526
0.131451
0.131376
0.131302
0.131227
0.131153
0.131079
0.131006
0.130933
0.13086
0.130787
0.130714
0.130642
0.13057
0.130498
0.130426
0.130355
0.130284
0.130213
0.130142
0.130071
0.130001
0.129931
0.129861
0.129791
0.129721
0.129652
0.129582
0.129513
0.129444
0.129375
0.129307
0.129238
0.12917
0.129101
0.129033
0.128965
0.128897
0.128829
0.128762
0.128694
0.128627
0.128559
0.128492
0.128425
0.128358
0.128291
0.128224
0.128157
0.12809
0.128023
0.127957
0.12789
0.127823
0.127757
0.127691
0.127625
0.127558
0.127492
0.127426
0.127361
0.127295
0.127229
0.127164
0.127098
0.127033
0.126968
0.126903
0.126838
0.126773
0.126709
0.126644
0.12658
0.126516
0.126453
0.126389
0.126326
0.126263
0.126201
0.126138
0.126076
0.126015
0.125954
0.125893
0.125832
0.125772
0.125713
0.125654
0.125595
0.125537
0.12548
0.125423
0.125367
0.125311
0.125257
0.125203
0.125149
0.125097
0.125045
0.124995
0.124945
0.124896
0.124849
0.124802
0.124757
0.124713
0.12467
0.124628
0.124588
0.124549
0.124512
0.124476
0.124441
0.124409
0.124378
0.124349
0.124321
0.124296
0.124273
0.124251
0.124232
0.124215
0.1242
0.124187
0.124176
0.124167
0.12416
0.12416
0.1
0.100008
0.100027
0.100056
0.100093
0.100138
0.100188
0.100242
0.1003
0.10036
0.100421
0.100484
0.100546
0.10061
0.100673
0.100737
0.100801
0.100867
0.100935
0.101006
0.10108
0.101159
0.101242
0.101331
0.101425
0.101527
0.101636
0.101752
0.101876
0.102008
0.102148
0.102295
0.102451
0.102615
0.102787
0.102966
0.103153
0.103347
0.103549
0.103758
0.103974
0.104198
0.104429
0.104668
0.104914
0.105168
0.105429
0.105699
0.105978
0.106265
0.106561
0.106866
0.107181
0.107505
0.107839
0.108183
0.108537
0.108901
0.109276
0.109661
0.110056
0.110462
0.110878
0.111304
0.111741
0.112187
0.112643
0.113108
0.113583
0.114066
0.114558
0.115059
0.115567
0.116083
0.116606
0.117136
0.117673
0.118215
0.118763
0.119316
0.119873
0.120435
0.120999
0.121567
0.122136
0.122708
0.12328
0.123853
0.124425
0.124997
0.125567
0.126135
0.1267
0.127261
0.127818
0.12837
0.128917
0.129457
0.129991
0.130518
0.131036
0.131546
0.132047
0.132538
0.133019
0.133489
0.133949
0.134398
0.134834
0.135259
0.135672
0.136072
0.136459
0.136834
0.137196
0.137544
0.13788
0.138202
0.138511
0.138807
0.13909
0.13936
0.139617
0.139861
0.140093
0.140312
0.140518
0.140713
0.140895
0.141066
0.141226
0.141374
0.141511
0.141637
0.141753
0.141859
0.141955
0.142041
0.142117
0.142185
0.142243
0.142293
0.142335
0.142369
0.142395
0.142413
0.142425
0.142429
0.142427
0.142418
0.142403
0.142383
0.142356
0.142325
0.142288
0.142246
0.142199
0.142148
0.142093
0.142034
0.141971
0.141904
0.141834
0.141761
0.141685
0.141605
0.141524
0.141439
0.141353
0.141264
0.141173
0.14108
0.140985
0.140889
0.140791
0.140692
0.140592
0.14049
0.140387
0.140284
0.140179
0.140074
0.139968
0.139861
0.139754
0.139646
0.139538
0.13943
0.139321
0.139213
0.139104
0.138995
0.138885
0.138776
0.138667
0.138559
0.13845
0.138341
0.138233
0.138125
0.138017
0.137909
0.137802
0.137696
0.137589
0.137483
0.137378
0.137273
0.137168
0.137064
0.13696
0.136857
0.136754
0.136652
0.136551
0.13645
0.136349
0.136249
0.13615
0.136051
0.135953
0.135855
0.135758
0.135662
0.135566
0.13547
0.135375
0.135281
0.135187
0.135094
0.135001
0.134909
0.134817
0.134726
0.134635
0.134545
0.134456
0.134367
0.134278
0.13419
0.134103
0.134016
0.133929
0.133843
0.133757
0.133672
0.133587
0.133503
0.133419
0.133335
0.133252
0.13317
0.133087
0.133005
0.132924
0.132843
0.132762
0.132682
0.132602
0.132522
0.132443
0.132364
0.132285
0.132207
0.132129
0.132051
0.131974
0.131897
0.13182
0.131744
0.131668
0.131592
0.131517
0.131441
0.131367
0.131292
0.131217
0.131143
0.131069
0.130996
0.130922
0.130849
0.130776
0.130704
0.130631
0.130559
0.130487
0.130416
0.130344
0.130273
0.130202
0.130131
0.13006
0.12999
0.12992
0.12985
0.12978
0.12971
0.12964
0.129571
0.129502
0.129433
0.129364
0.129295
0.129226
0.129158
0.12909
0.129021
0.128953
0.128885
0.128817
0.12875
0.128682
0.128614
0.128547
0.12848
0.128412
0.128345
0.128278
0.128211
0.128144
0.128077
0.12801
0.127944
0.127877
0.127811
0.127744
0.127678
0.127612
0.127545
0.127479
0.127413
0.127347
0.127282
0.127216
0.12715
0.127085
0.12702
0.126954
0.126889
0.126825
0.12676
0.126695
0.126631
0.126567
0.126503
0.126439
0.126376
0.126313
0.12625
0.126187
0.126125
0.126063
0.126001
0.12594
0.125879
0.125818
0.125758
0.125699
0.12564
0.125581
0.125523
0.125466
0.125409
0.125353
0.125297
0.125242
0.125188
0.125135
0.125083
0.125031
0.124981
0.124931
0.124882
0.124834
0.124788
0.124742
0.124698
0.124655
0.124614
0.124573
0.124534
0.124497
0.124461
0.124427
0.124394
0.124363
0.124334
0.124307
0.124281
0.124258
0.124237
0.124217
0.1242
0.124185
0.124172
0.124161
0.124153
0.124146
0.124146
0.1
0.100008
0.100027
0.100056
0.100093
0.100137
0.100187
0.100242
0.100299
0.100359
0.10042
0.100483
0.100545
0.100608
0.100671
0.100735
0.1008
0.100866
0.100934
0.101004
0.101078
0.101156
0.101239
0.101328
0.101423
0.101524
0.101633
0.101749
0.101873
0.102004
0.102144
0.102292
0.102448
0.102611
0.102782
0.102962
0.103148
0.103342
0.103544
0.103753
0.103969
0.104192
0.104423
0.104662
0.104908
0.105161
0.105423
0.105693
0.105971
0.106258
0.106554
0.106859
0.107174
0.107498
0.107832
0.108176
0.10853
0.108894
0.109269
0.109654
0.11005
0.110456
0.110872
0.111299
0.111735
0.112182
0.112638
0.113104
0.113579
0.114063
0.114555
0.115056
0.115565
0.116082
0.116606
0.117137
0.117674
0.118217
0.118766
0.11932
0.119878
0.12044
0.121005
0.121574
0.122144
0.122717
0.12329
0.123864
0.124437
0.125009
0.12558
0.126149
0.126715
0.127277
0.127835
0.128388
0.128936
0.129477
0.130011
0.130539
0.131058
0.131568
0.132069
0.132561
0.133043
0.133514
0.133974
0.134423
0.13486
0.135285
0.135697
0.136098
0.136485
0.13686
0.137222
0.13757
0.137906
0.138228
0.138537
0.138833
0.139116
0.139385
0.139642
0.139886
0.140117
0.140336
0.140542
0.140736
0.140918
0.141089
0.141248
0.141395
0.141532
0.141658
0.141773
0.141878
0.141974
0.142059
0.142135
0.142202
0.142261
0.14231
0.142352
0.142385
0.14241
0.142428
0.142439
0.142443
0.142441
0.142431
0.142416
0.142395
0.142368
0.142336
0.142299
0.142256
0.142209
0.142158
0.142102
0.142043
0.141979
0.141912
0.141842
0.141768
0.141691
0.141612
0.14153
0.141445
0.141358
0.141268
0.141177
0.141084
0.140989
0.140892
0.140794
0.140695
0.140594
0.140492
0.140389
0.140285
0.14018
0.140074
0.139968
0.139861
0.139753
0.139645
0.139537
0.139428
0.139319
0.13921
0.139101
0.138991
0.138882
0.138773
0.138663
0.138554
0.138445
0.138336
0.138227
0.138119
0.138011
0.137903
0.137795
0.137688
0.137582
0.137475
0.137369
0.137264
0.137159
0.137055
0.136951
0.136847
0.136744
0.136642
0.13654
0.136439
0.136338
0.136237
0.136138
0.136039
0.13594
0.135842
0.135745
0.135648
0.135551
0.135456
0.13536
0.135266
0.135171
0.135078
0.134985
0.134892
0.1348
0.134709
0.134618
0.134528
0.134438
0.134348
0.134259
0.134171
0.134083
0.133996
0.133909
0.133822
0.133736
0.133651
0.133566
0.133481
0.133397
0.133313
0.13323
0.133147
0.133064
0.132982
0.1329
0.132819
0.132738
0.132657
0.132577
0.132497
0.132418
0.132338
0.132259
0.132181
0.132103
0.132025
0.131947
0.13187
0.131793
0.131716
0.13164
0.131564
0.131488
0.131413
0.131337
0.131263
0.131188
0.131114
0.131039
0.130966
0.130892
0.130819
0.130746
0.130673
0.1306
0.130528
0.130456
0.130384
0.130312
0.13024
0.130169
0.130098
0.130027
0.129957
0.129886
0.129816
0.129746
0.129676
0.129606
0.129537
0.129467
0.129398
0.129329
0.12926
0.129191
0.129122
0.129054
0.128985
0.128917
0.128849
0.128781
0.128713
0.128645
0.128577
0.12851
0.128442
0.128375
0.128308
0.12824
0.128173
0.128106
0.128039
0.127972
0.127905
0.127839
0.127772
0.127705
0.127639
0.127573
0.127506
0.12744
0.127374
0.127308
0.127242
0.127176
0.127111
0.127045
0.12698
0.126914
0.126849
0.126784
0.126719
0.126655
0.12659
0.126526
0.126462
0.126398
0.126335
0.126271
0.126208
0.126146
0.126083
0.126021
0.125959
0.125898
0.125837
0.125777
0.125717
0.125657
0.125598
0.125539
0.125481
0.125424
0.125367
0.12531
0.125255
0.1252
0.125146
0.125093
0.12504
0.124988
0.124938
0.124888
0.124839
0.124791
0.124745
0.124699
0.124655
0.124612
0.12457
0.12453
0.124491
0.124454
0.124418
0.124383
0.124351
0.12432
0.12429
0.124263
0.124238
0.124214
0.124193
0.124173
0.124156
0.124141
0.124128
0.124117
0.124109
0.124102
0.124102
0.1
0.100008
0.100027
0.100056
0.100093
0.100137
0.100187
0.100241
0.100298
0.100358
0.100419
0.100481
0.100543
0.100606
0.100669
0.100733
0.100797
0.100863
0.10093
0.101001
0.101075
0.101153
0.101236
0.101324
0.101419
0.10152
0.101628
0.101744
0.101868
0.101999
0.102138
0.102286
0.102441
0.102604
0.102775
0.102954
0.10314
0.103334
0.103535
0.103744
0.10396
0.104183
0.104413
0.104652
0.104897
0.105151
0.105412
0.105682
0.10596
0.106247
0.106542
0.106847
0.107162
0.107486
0.10782
0.108164
0.108518
0.108883
0.109258
0.109643
0.110039
0.110445
0.110862
0.111289
0.111726
0.112173
0.11263
0.113097
0.113572
0.114057
0.114551
0.115053
0.115563
0.11608
0.116605
0.117137
0.117676
0.11822
0.11877
0.119325
0.119885
0.120448
0.121015
0.121585
0.122157
0.122731
0.123306
0.123881
0.124456
0.125031
0.125603
0.126173
0.126741
0.127304
0.127864
0.128418
0.128967
0.12951
0.130045
0.130574
0.131094
0.131605
0.132107
0.1326
0.133082
0.133554
0.134015
0.134464
0.134902
0.135327
0.13574
0.136141
0.136529
0.136903
0.137265
0.137614
0.137949
0.138271
0.13858
0.138875
0.139158
0.139427
0.139683
0.139927
0.140157
0.140375
0.140581
0.140774
0.140956
0.141126
0.141284
0.141431
0.141567
0.141692
0.141807
0.141911
0.142006
0.14209
0.142166
0.142232
0.142289
0.142338
0.142379
0.142411
0.142436
0.142453
0.142463
0.142467
0.142463
0.142453
0.142437
0.142415
0.142388
0.142355
0.142317
0.142274
0.142226
0.142174
0.142118
0.142057
0.141993
0.141925
0.141854
0.14178
0.141702
0.141622
0.141539
0.141454
0.141366
0.141276
0.141184
0.14109
0.140995
0.140898
0.140799
0.140699
0.140597
0.140495
0.140391
0.140286
0.140181
0.140074
0.139967
0.13986
0.139752
0.139643
0.139534
0.139425
0.139315
0.139206
0.139096
0.138986
0.138876
0.138766
0.138656
0.138546
0.138436
0.138327
0.138218
0.138109
0.138
0.137892
0.137784
0.137676
0.137569
0.137462
0.137355
0.137249
0.137144
0.137039
0.136934
0.13683
0.136727
0.136624
0.136521
0.136419
0.136318
0.136217
0.136117
0.136017
0.135918
0.13582
0.135722
0.135624
0.135527
0.135431
0.135335
0.13524
0.135145
0.135051
0.134957
0.134864
0.134772
0.13468
0.134589
0.134498
0.134407
0.134317
0.134228
0.134139
0.134051
0.133963
0.133875
0.133788
0.133702
0.133616
0.13353
0.133445
0.13336
0.133276
0.133192
0.133109
0.133026
0.132943
0.132861
0.132779
0.132697
0.132616
0.132535
0.132455
0.132375
0.132295
0.132216
0.132137
0.132058
0.13198
0.131902
0.131824
0.131747
0.13167
0.131593
0.131517
0.13144
0.131364
0.131289
0.131214
0.131138
0.131064
0.130989
0.130915
0.130841
0.130767
0.130694
0.130621
0.130548
0.130475
0.130402
0.13033
0.130258
0.130186
0.130114
0.130043
0.129972
0.129901
0.12983
0.129759
0.129689
0.129619
0.129549
0.129479
0.129409
0.12934
0.12927
0.129201
0.129132
0.129063
0.128994
0.128925
0.128857
0.128788
0.12872
0.128652
0.128584
0.128516
0.128448
0.12838
0.128313
0.128245
0.128178
0.12811
0.128043
0.127976
0.127908
0.127841
0.127774
0.127708
0.127641
0.127574
0.127508
0.127441
0.127375
0.127308
0.127242
0.127176
0.12711
0.127044
0.126978
0.126913
0.126847
0.126782
0.126717
0.126652
0.126587
0.126522
0.126458
0.126394
0.12633
0.126266
0.126203
0.12614
0.126077
0.126014
0.125952
0.12589
0.125829
0.125768
0.125707
0.125647
0.125587
0.125528
0.125469
0.125411
0.125353
0.125296
0.12524
0.125184
0.125129
0.125075
0.125021
0.124969
0.124917
0.124866
0.124816
0.124767
0.12472
0.124673
0.124627
0.124583
0.12454
0.124498
0.124458
0.124419
0.124381
0.124345
0.124311
0.124278
0.124247
0.124217
0.12419
0.124165
0.124141
0.124119
0.1241
0.124083
0.124068
0.124055
0.124044
0.124035
0.124028
0.124028
0.1
0.100008
0.100027
0.100055
0.100092
0.100136
0.100186
0.10024
0.100297
0.100356
0.100417
0.100479
0.100541
0.100603
0.100666
0.100729
0.100793
0.100859
0.100926
0.100996
0.10107
0.101148
0.10123
0.101318
0.101413
0.101514
0.101622
0.101737
0.10186
0.101991
0.10213
0.102277
0.102432
0.102595
0.102765
0.102944
0.10313
0.103323
0.103524
0.103732
0.103947
0.10417
0.1044
0.104637
0.104883
0.105136
0.105397
0.105666
0.105944
0.106231
0.106526
0.106831
0.107145
0.10747
0.107804
0.108148
0.108502
0.108867
0.109242
0.109628
0.110024
0.110431
0.110848
0.111276
0.111713
0.112161
0.112619
0.113086
0.113563
0.114049
0.114544
0.115047
0.115559
0.116078
0.116604
0.117138
0.117678
0.118224
0.118776
0.119333
0.119895
0.12046
0.12103
0.121602
0.122176
0.122752
0.123329
0.123907
0.124484
0.12506
0.125635
0.126207
0.126777
0.127342
0.127904
0.12846
0.129011
0.129555
0.130093
0.130623
0.131144
0.131657
0.132161
0.132655
0.133138
0.133611
0.134073
0.134523
0.134961
0.135387
0.1358
0.136201
0.136589
0.136964
0.137326
0.137674
0.138009
0.138331
0.13864
0.138935
0.139217
0.139485
0.139741
0.139984
0.140214
0.140431
0.140636
0.140828
0.141009
0.141178
0.141335
0.141481
0.141616
0.14174
0.141854
0.141957
0.14205
0.142134
0.142208
0.142273
0.14233
0.142377
0.142417
0.142448
0.142472
0.142488
0.142497
0.142499
0.142494
0.142483
0.142466
0.142443
0.142415
0.142381
0.142342
0.142298
0.142249
0.142196
0.142138
0.142077
0.142012
0.141943
0.141871
0.141796
0.141717
0.141636
0.141553
0.141466
0.141378
0.141287
0.141194
0.141099
0.141003
0.140904
0.140805
0.140704
0.140601
0.140498
0.140393
0.140288
0.140182
0.140074
0.139967
0.139858
0.139749
0.13964
0.13953
0.13942
0.139309
0.139199
0.139088
0.138977
0.138867
0.138756
0.138645
0.138534
0.138424
0.138314
0.138204
0.138094
0.137984
0.137875
0.137766
0.137658
0.13755
0.137442
0.137335
0.137228
0.137122
0.137016
0.136911
0.136806
0.136702
0.136598
0.136495
0.136392
0.13629
0.136188
0.136087
0.135987
0.135887
0.135787
0.135689
0.13559
0.135493
0.135396
0.135299
0.135203
0.135108
0.135013
0.134918
0.134825
0.134731
0.134639
0.134547
0.134455
0.134364
0.134273
0.134183
0.134093
0.134004
0.133916
0.133827
0.13374
0.133652
0.133566
0.133479
0.133393
0.133308
0.133223
0.133139
0.133054
0.132971
0.132887
0.132804
0.132722
0.13264
0.132558
0.132477
0.132395
0.132315
0.132234
0.132154
0.132075
0.131996
0.131917
0.131838
0.13176
0.131682
0.131604
0.131527
0.13145
0.131373
0.131296
0.13122
0.131144
0.131069
0.130993
0.130918
0.130843
0.130769
0.130695
0.130621
0.130547
0.130473
0.1304
0.130327
0.130254
0.130182
0.13011
0.130037
0.129966
0.129894
0.129822
0.129751
0.12968
0.129609
0.129539
0.129468
0.129398
0.129328
0.129258
0.129188
0.129118
0.129049
0.128979
0.12891
0.128841
0.128772
0.128703
0.128635
0.128566
0.128498
0.128429
0.128361
0.128293
0.128225
0.128157
0.128089
0.128021
0.127954
0.127886
0.127819
0.127751
0.127684
0.127617
0.12755
0.127483
0.127416
0.127349
0.127283
0.127216
0.127149
0.127083
0.127017
0.126951
0.126885
0.126819
0.126753
0.126688
0.126622
0.126557
0.126492
0.126427
0.126363
0.126298
0.126234
0.12617
0.126107
0.126043
0.12598
0.125917
0.125855
0.125793
0.125731
0.12567
0.125609
0.125549
0.125489
0.125429
0.12537
0.125312
0.125254
0.125197
0.125141
0.125085
0.12503
0.124975
0.124922
0.124869
0.124817
0.124766
0.124716
0.124667
0.124619
0.124572
0.124526
0.124482
0.124439
0.124397
0.124356
0.124317
0.124279
0.124243
0.124209
0.124176
0.124145
0.124115
0.124088
0.124062
0.124038
0.124017
0.123997
0.12398
0.123965
0.123952
0.123941
0.123933
0.123926
0.123926
0.1
0.100008
0.100027
0.100055
0.100092
0.100135
0.100185
0.100238
0.100295
0.100354
0.100414
0.100476
0.100537
0.100599
0.100662
0.100725
0.100788
0.100853
0.100921
0.10099
0.101064
0.101141
0.101223
0.101311
0.101405
0.101506
0.101613
0.101728
0.101851
0.101981
0.10212
0.102266
0.102421
0.102583
0.102753
0.10293
0.103116
0.103308
0.103508
0.103716
0.10393
0.104153
0.104382
0.104619
0.104864
0.105117
0.105377
0.105646
0.105924
0.10621
0.106505
0.10681
0.107124
0.107448
0.107782
0.108127
0.108481
0.108846
0.109222
0.109608
0.110005
0.110412
0.11083
0.111258
0.111697
0.112146
0.112605
0.113073
0.113551
0.114039
0.114535
0.11504
0.115553
0.116074
0.116603
0.117139
0.117681
0.11823
0.118784
0.119343
0.119908
0.120476
0.121048
0.121622
0.1222
0.122778
0.123358
0.123939
0.124519
0.125098
0.125676
0.126251
0.126823
0.127392
0.127956
0.128515
0.129068
0.129614
0.130154
0.130686
0.13121
0.131724
0.13223
0.132725
0.13321
0.133684
0.134147
0.134598
0.135037
0.135464
0.135878
0.136279
0.136667
0.137042
0.137404
0.137752
0.138087
0.138409
0.138717
0.139011
0.139292
0.13956
0.139815
0.140057
0.140286
0.140502
0.140706
0.140897
0.141077
0.141244
0.1414
0.141545
0.141679
0.141801
0.141914
0.142016
0.142108
0.14219
0.142263
0.142326
0.142381
0.142427
0.142465
0.142495
0.142517
0.142532
0.14254
0.14254
0.142534
0.142522
0.142503
0.142479
0.142449
0.142414
0.142373
0.142328
0.142278
0.142223
0.142165
0.142102
0.142036
0.141966
0.141892
0.141816
0.141736
0.141654
0.141569
0.141481
0.141391
0.141299
0.141205
0.141109
0.141012
0.140912
0.140812
0.140709
0.140606
0.140501
0.140396
0.140289
0.140182
0.140073
0.139965
0.139855
0.139745
0.139634
0.139524
0.139412
0.139301
0.139189
0.139077
0.138966
0.138854
0.138742
0.13863
0.138518
0.138407
0.138296
0.138184
0.138074
0.137963
0.137853
0.137743
0.137633
0.137524
0.137416
0.137307
0.1372
0.137092
0.136985
0.136879
0.136773
0.136668
0.136563
0.136459
0.136355
0.136252
0.13615
0.136048
0.135946
0.135845
0.135745
0.135645
0.135546
0.135447
0.135349
0.135252
0.135155
0.135058
0.134962
0.134867
0.134772
0.134678
0.134584
0.134491
0.134399
0.134307
0.134215
0.134124
0.134033
0.133943
0.133854
0.133765
0.133676
0.133588
0.1335
0.133413
0.133326
0.13324
0.133154
0.133069
0.132984
0.132899
0.132815
0.132731
0.132648
0.132565
0.132482
0.1324
0.132318
0.132236
0.132155
0.132074
0.131994
0.131914
0.131834
0.131755
0.131676
0.131597
0.131518
0.13144
0.131362
0.131285
0.131208
0.131131
0.131054
0.130978
0.130902
0.130826
0.130751
0.130675
0.130601
0.130526
0.130451
0.130377
0.130303
0.13023
0.130156
0.130083
0.13001
0.129938
0.129865
0.129793
0.129721
0.129649
0.129577
0.129506
0.129435
0.129364
0.129293
0.129222
0.129151
0.129081
0.129011
0.128941
0.128871
0.128801
0.128732
0.128662
0.128593
0.128524
0.128455
0.128386
0.128317
0.128248
0.12818
0.128111
0.128043
0.127975
0.127907
0.127839
0.127771
0.127703
0.127635
0.127568
0.1275
0.127433
0.127365
0.127298
0.127231
0.127164
0.127097
0.12703
0.126963
0.126897
0.12683
0.126764
0.126698
0.126632
0.126566
0.1265
0.126435
0.126369
0.126304
0.126239
0.126175
0.12611
0.126046
0.125982
0.125919
0.125855
0.125792
0.12573
0.125668
0.125606
0.125544
0.125483
0.125422
0.125362
0.125303
0.125243
0.125185
0.125127
0.12507
0.125013
0.124957
0.124902
0.124847
0.124793
0.12474
0.124688
0.124637
0.124587
0.124538
0.124489
0.124442
0.124397
0.124352
0.124308
0.124266
0.124226
0.124186
0.124148
0.124112
0.124077
0.124044
0.124013
0.123984
0.123956
0.12393
0.123906
0.123885
0.123865
0.123848
0.123833
0.12382
0.123809
0.1238
0.123793
0.123793
0.1
0.100008
0.100027
0.100055
0.100091
0.100134
0.100183
0.100236
0.100293
0.100351
0.100411
0.100472
0.100533
0.100595
0.100657
0.100719
0.100782
0.100847
0.100914
0.100983
0.101056
0.101133
0.101215
0.101302
0.101396
0.101496
0.101603
0.101717
0.101839
0.101969
0.102107
0.102253
0.102406
0.102568
0.102737
0.102914
0.103098
0.10329
0.10349
0.103696
0.10391
0.104132
0.10436
0.104597
0.104841
0.105093
0.105353
0.105622
0.105899
0.106185
0.10648
0.106784
0.107098
0.107422
0.107756
0.1081
0.108455
0.10882
0.109196
0.109583
0.109981
0.110389
0.110807
0.111237
0.111676
0.112127
0.112587
0.113057
0.113537
0.114026
0.114524
0.115031
0.115546
0.11607
0.116601
0.117139
0.117684
0.118236
0.118793
0.119356
0.119923
0.120494
0.12107
0.121648
0.122228
0.122811
0.123394
0.123978
0.124562
0.125145
0.125726
0.126304
0.12688
0.127452
0.128019
0.128581
0.129137
0.129687
0.130229
0.130763
0.13129
0.131807
0.132314
0.132811
0.133298
0.133773
0.134238
0.13469
0.13513
0.135557
0.135972
0.136374
0.136763
0.137138
0.1375
0.137848
0.138182
0.138503
0.138811
0.139105
0.139385
0.139652
0.139906
0.140147
0.140374
0.140589
0.140792
0.140982
0.14116
0.141326
0.14148
0.141623
0.141755
0.141876
0.141987
0.142087
0.142177
0.142258
0.142329
0.142391
0.142444
0.142488
0.142524
0.142552
0.142573
0.142586
0.142591
0.14259
0.142583
0.142568
0.142548
0.142522
0.14249
0.142453
0.142411
0.142364
0.142313
0.142257
0.142196
0.142132
0.142064
0.141992
0.141918
0.141839
0.141758
0.141674
0.141588
0.141499
0.141407
0.141314
0.141218
0.141121
0.141022
0.140921
0.140819
0.140715
0.14061
0.140504
0.140397
0.140289
0.14018
0.140071
0.139961
0.13985
0.139738
0.139626
0.139514
0.139402
0.139289
0.139176
0.139063
0.13895
0.138836
0.138723
0.13861
0.138497
0.138384
0.138272
0.138159
0.138047
0.137935
0.137824
0.137713
0.137602
0.137492
0.137382
0.137272
0.137163
0.137054
0.136946
0.136839
0.136732
0.136625
0.136519
0.136414
0.136309
0.136204
0.136101
0.135997
0.135895
0.135793
0.135691
0.13559
0.13549
0.13539
0.13529
0.135192
0.135094
0.134996
0.134899
0.134802
0.134707
0.134611
0.134516
0.134422
0.134328
0.134235
0.134142
0.13405
0.133958
0.133867
0.133776
0.133686
0.133596
0.133507
0.133418
0.13333
0.133242
0.133155
0.133068
0.132981
0.132895
0.13281
0.132724
0.132639
0.132555
0.132471
0.132387
0.132304
0.132221
0.132139
0.132057
0.131975
0.131893
0.131812
0.131732
0.131651
0.131571
0.131492
0.131412
0.131333
0.131254
0.131176
0.131098
0.13102
0.130943
0.130866
0.130789
0.130712
0.130636
0.13056
0.130484
0.130409
0.130333
0.130258
0.130184
0.130109
0.130035
0.129961
0.129888
0.129814
0.129741
0.129668
0.129595
0.129523
0.12945
0.129378
0.129306
0.129235
0.129163
0.129092
0.129021
0.12895
0.128879
0.128808
0.128738
0.128667
0.128597
0.128527
0.128457
0.128388
0.128318
0.128249
0.128179
0.12811
0.128041
0.127972
0.127903
0.127834
0.127766
0.127697
0.127629
0.12756
0.127492
0.127424
0.127356
0.127288
0.12722
0.127153
0.127085
0.127018
0.12695
0.126883
0.126816
0.126749
0.126682
0.126616
0.126549
0.126483
0.126416
0.12635
0.126285
0.126219
0.126154
0.126088
0.126023
0.125959
0.125894
0.12583
0.125766
0.125702
0.125639
0.125576
0.125514
0.125452
0.12539
0.125328
0.125268
0.125207
0.125147
0.125088
0.125029
0.124971
0.124913
0.124856
0.1248
0.124744
0.12469
0.124636
0.124583
0.12453
0.124479
0.124428
0.124379
0.124331
0.124284
0.124237
0.124193
0.124149
0.124107
0.124066
0.124026
0.123988
0.123952
0.123917
0.123884
0.123852
0.123822
0.123795
0.123769
0.123745
0.123723
0.123703
0.123686
0.123671
0.123658
0.123647
0.123638
0.123631
0.123631
0.1
0.100008
0.100026
0.100054
0.10009
0.100133
0.100182
0.100234
0.10029
0.100348
0.100408
0.100468
0.100528
0.100589
0.100651
0.100713
0.100775
0.10084
0.100906
0.100975
0.101047
0.101124
0.101205
0.101292
0.101384
0.101484
0.10159
0.101704
0.101826
0.101955
0.102092
0.102237
0.10239
0.10255
0.102719
0.102895
0.103078
0.103269
0.103467
0.103673
0.103886
0.104107
0.104335
0.10457
0.104814
0.105065
0.105324
0.105592
0.105869
0.106154
0.106449
0.106753
0.107067
0.107391
0.107725
0.108069
0.108424
0.10879
0.109166
0.109554
0.109952
0.110361
0.11078
0.111211
0.111652
0.112103
0.112565
0.113037
0.113519
0.11401
0.11451
0.11502
0.115538
0.116064
0.116598
0.117139
0.117688
0.118243
0.118803
0.11937
0.119941
0.120516
0.121095
0.121678
0.122262
0.122849
0.123437
0.124025
0.124613
0.125199
0.125785
0.126367
0.126947
0.127523
0.128094
0.128659
0.129219
0.129772
0.130318
0.130855
0.131384
0.131904
0.132414
0.132913
0.133402
0.13388
0.134345
0.134799
0.13524
0.135669
0.136084
0.136487
0.136876
0.137251
0.137613
0.137961
0.138295
0.138616
0.138922
0.139215
0.139495
0.139761
0.140013
0.140253
0.140479
0.140692
0.140893
0.141082
0.141258
0.141422
0.141574
0.141715
0.141845
0.141964
0.142073
0.142171
0.142259
0.142337
0.142406
0.142466
0.142517
0.142559
0.142593
0.142619
0.142637
0.142648
0.142652
0.142649
0.142639
0.142623
0.1426
0.142572
0.142538
0.142499
0.142455
0.142406
0.142353
0.142294