# vtk DataFile Version 3.0
LBM Fluid Grid
ASCII
DATASET STRUCTURED_POINTS
DIMENSIONS 400 150 1
ORIGIN 0 0 0
SPACING 1 1 1
POINT_DATA 60000
SCALARS VelocityMagnitude double 1
LOOKUP_TABLE default
0.1
0.0999987
0.100001
0.100008
0.100019
0.100035
0.100055
0.10008
0.100109
0.100143
0.100182
0.100226
0.100275
0.100329
0.100387
0.10045
0.100519
0.100592
0.10067
0.100753
0.100841
0.100935
0.101033
0.101137
0.101246
0.101361
0.101481
0.101607
0.101739
0.101876
0.10202
0.102171
0.102328
0.102492
0.102662
0.10284
0.103025
0.103218
0.103418
0.103626
0.103842
0.104066
0.104299
0.10454
0.104789
0.105047
0.105315
0.105591
0.105876
0.106171
0.106474
0.106788
0.107111
0.107444
0.107786
0.108138
0.1085
0.108873
0.109255
0.109647
0.110048
0.11046
0.110882
0.111314
0.111755
0.112206
0.112666
0.113136
0.113614
0.114102
0.114598
0.115103
0.115616
0.116136
0.116664
0.117198
0.117739
0.118286
0.118839
0.119397
0.119959
0.120526
0.121095
0.121668
0.122242
0.122819
0.123396
0.123973
0.12455
0.125126
0.125699
0.126271
0.126839
0.127404
0.127964
0.128519
0.129068
0.129611
0.130147
0.130675
0.131195
0.131706
0.132208
0.1327
0.133182
0.133654
0.134114
0.134563
0.135
0.135426
0.135839
0.136239
0.136627
0.137002
0.137364
0.137713
0.138048
0.138371
0.13868
0.138976
0.139259
0.139528
0.139785
0.140029
0.14026
0.140478
0.140684
0.140878
0.14106
0.14123
0.141389
0.141536
0.141672
0.141797
0.141912
0.142016
0.142111
0.142195
0.142271
0.142337
0.142394
0.142443
0.142483
0.142516
0.142541
0.142558
0.142568
0.142571
0.142568
0.142558
0.142542
0.142521
0.142494
0.142461
0.142423
0.142381
0.142334
0.142282
0.142226
0.142167
0.142103
0.142036
0.141966
0.141892
0.141815
0.141736
0.141654
0.141569
0.141482
0.141393
0.141301
0.141208
0.141113
0.141016
0.140918
0.140819
0.140718
0.140616
0.140513
0.140409
0.140304
0.140198
0.140092
0.139985
0.139878
0.13977
0.139662
0.139553
0.139444
0.139335
0.139226
0.139117
0.139008
0.138899
0.13879
0.138681
0.138572
0.138464
0.138356
0.138248
0.13814
0.138033
0.137926
0.13782
0.137714
0.137608
0.137503
0.137398
0.137294
0.13719
0.137087
0.136985
0.136883
0.136781
0.136681
0.13658
0.136481
0.136382
0.136283
0.136186
0.136088
0.135992
0.135896
0.135801
0.135706
0.135612
0.135519
0.135426
0.135334
0.135242
0.135151
0.135061
0.134971
0.134882
0.134793
0.134706
0.134618
0.134531
0.134445
0.13436
0.134275
0.13419
0.134106
0.134023
0.13394
0.133858
0.133776
0.133695
0.133615
0.133535
0.133455
0.133376
0.133297
0.133219
0.133141
0.133064
0.132988
0.132911
0.132835
0.13276
0.132685
0.132611
0.132537
0.132463
0.13239
0.132317
0.132245
0.132173
0.132101
0.13203
0.131959
0.131888
0.131818
0.131748
0.131679
0.13161
0.131541
0.131473
0.131405
0.131337
0.13127
0.131202
0.131136
0.131069
0.131003
0.130937
0.130871
0.130806
0.130741
0.130676
0.130612
0.130548
0.130484
0.13042
0.130357
0.130294
0.130231
0.130168
0.130106
0.130044
0.129982
0.129921
0.129859
0.129798
0.129737
0.129677
0.129617
0.129557
0.129497
0.129437
0.129378
0.129319
0.12926
0.129201
0.129143
0.129085
0.129027
0.128969
0.128912
0.128855
0.128798
0.128741
0.128685
0.128628
0.128573
0.128517
0.128462
0.128407
0.128352
0.128297
0.128243
0.128189
0.128136
0.128082
0.128029
0.127977
0.127924
0.127872
0.127821
0.127769
0.127718
0.127667
0.127617
0.127567
0.127518
0.127469
0.12742
0.127372
0.127324
0.127276
0.127229
0.127183
0.127137
0.127091
0.127046
0.127002
0.126958
0.126914
0.126872
0.126829
0.126788
0.126747
0.126706
0.126667
0.126628
0.126589
0.126552
0.126515
0.126479
0.126444
0.126409
0.126375
0.126343
0.126311
0.12628
0.12625
0.126221
0.126192
0.126165
0.126139
0.126114
0.12609
0.126067
0.126045
0.126025
0.126005
0.125987
0.125969
0.125953
0.125939
0.125925
0.125913
0.125902
0.125892
0.125883
0.125876
0.12587
0.125865
0.12586
0.12586
0.1
0.0999987
0.100001
0.100008
0.100019
0.100035
0.100055
0.10008
0.100109
0.100143
0.100182
0.100226
0.100275
0.100328
0.100387
0.10045
0.100518
0.100592
0.10067
0.100753
0.100841
0.100934
0.101033
0.101136
0.101245
0.10136
0.10148
0.101606
0.101738
0.101875
0.102019
0.10217
0.102327
0.10249
0.102661
0.102839
0.103024
0.103216
0.103417
0.103625
0.10384
0.104065
0.104297
0.104538
0.104787
0.105045
0.105313
0.105589
0.105874
0.106168
0.106472
0.106786
0.107109
0.107441
0.107784
0.108136
0.108498
0.10887
0.109252
0.109644
0.110046
0.110458
0.11088
0.111312
0.111753
0.112204
0.112665
0.113134
0.113613
0.114101
0.114597
0.115102
0.115615
0.116136
0.116664
0.117198
0.11774
0.118287
0.11884
0.119398
0.119961
0.120527
0.121097
0.12167
0.122245
0.122821
0.123399
0.123976
0.124554
0.12513
0.125704
0.126276
0.126844
0.127409
0.12797
0.128525
0.129074
0.129617
0.130153
0.130682
0.131202
0.131713
0.132215
0.132708
0.13319
0.133662
0.134122
0.134571
0.135009
0.135434
0.135847
0.136248
0.136636
0.137011
0.137373
0.137721
0.138057
0.138379
0.138688
0.138984
0.139267
0.139537
0.139793
0.140037
0.140268
0.140486
0.140692
0.140886
0.141068
0.141238
0.141396
0.141543
0.141679
0.141804
0.141919
0.142023
0.142117
0.142202
0.142277
0.142343
0.1424
0.142449
0.142489
0.142521
0.142546
0.142563
0.142573
0.142576
0.142572
0.142563
0.142547
0.142525
0.142498
0.142465
0.142427
0.142384
0.142337
0.142285
0.142229
0.14217
0.142106
0.142039
0.141968
0.141894
0.141818
0.141738
0.141656
0.141571
0.141484
0.141394
0.141303
0.141209
0.141114
0.141018
0.140919
0.14082
0.140719
0.140617
0.140513
0.140409
0.140304
0.140199
0.140092
0.139985
0.139878
0.13977
0.139661
0.139553
0.139444
0.139335
0.139225
0.139116
0.139007
0.138898
0.138789
0.13868
0.138571
0.138462
0.138354
0.138246
0.138138
0.138031
0.137924
0.137817
0.137711
0.137605
0.1375
0.137395
0.137291
0.137187
0.137084
0.136982
0.136879
0.136778
0.136677
0.136577
0.136477
0.136378
0.136279
0.136181
0.136084
0.135988
0.135892
0.135796
0.135701
0.135607
0.135514
0.135421
0.135328
0.135237
0.135146
0.135055
0.134965
0.134876
0.134788
0.1347
0.134612
0.134525
0.134439
0.134353
0.134268
0.134184
0.1341
0.134016
0.133934
0.133851
0.133769
0.133688
0.133607
0.133527
0.133448
0.133368
0.13329
0.133211
0.133134
0.133056
0.13298
0.132903
0.132827
0.132752
0.132677
0.132602
0.132528
0.132454
0.132381
0.132308
0.132236
0.132164
0.132092
0.13202
0.13195
0.131879
0.131809
0.131739
0.131669
0.1316
0.131531
0.131463
0.131395
0.131327
0.131259
0.131192
0.131125
0.131059
0.130992
0.130926
0.130861
0.130795
0.13073
0.130666
0.130601
0.130537
0.130473
0.130409
0.130346
0.130282
0.13022
0.130157
0.130095
0.130032
0.129971
0.129909
0.129848
0.129786
0.129726
0.129665
0.129604
0.129544
0.129484
0.129425
0.129365
0.129306
0.129247
0.129189
0.12913
0.129072
0.129014
0.128956
0.128899
0.128842
0.128785
0.128728
0.128672
0.128615
0.128559
0.128504
0.128448
0.128393
0.128339
0.128284
0.12823
0.128176
0.128122
0.128069
0.128016
0.127963
0.127911
0.127858
0.127807
0.127755
0.127704
0.127653
0.127603
0.127553
0.127504
0.127454
0.127406
0.127357
0.127309
0.127262
0.127215
0.127168
0.127122
0.127077
0.127032
0.126987
0.126943
0.1269
0.126857
0.126815
0.126773
0.126732
0.126692
0.126652
0.126613
0.126574
0.126537
0.1265
0.126464
0.126429
0.126394
0.12636
0.126328
0.126296
0.126265
0.126234
0.126205
0.126177
0.12615
0.126124
0.126099
0.126075
0.126052
0.12603
0.126009
0.125989
0.125971
0.125954
0.125938
0.125923
0.125909
0.125897
0.125886
0.125876
0.125868
0.12586
0.125854
0.125849
0.125845
0.125845
0.1
0.0999987
0.100001
0.100008
0.100019
0.100035
0.100055
0.10008
0.100109
0.100143
0.100182
0.100226
0.100274
0.100328
0.100386
0.100449
0.100517
0.100591
0.100669
0.100752
0.10084
0.100933
0.101031
0.101134
0.101243
0.101358
0.101478
0.101603
0.101735
0.101872
0.102016
0.102166
0.102323
0.102487
0.102657
0.102835
0.10302
0.103212
0.103412
0.10362
0.103835
0.104059
0.104292
0.104532
0.104781
0.10504
0.105306
0.105582
0.105868
0.106162
0.106466
0.106779
0.107102
0.107435
0.107777
0.108129
0.108492
0.108864
0.109246
0.109638
0.11004
0.110452
0.110874
0.111306
0.111748
0.112199
0.11266
0.11313
0.11361
0.114098
0.114595
0.1151
0.115614
0.116135
0.116663
0.117199
0.117741
0.118289
0.118843
0.119402
0.119965
0.120533
0.121103
0.121677
0.122253
0.12283
0.123409
0.123987
0.124565
0.125142
0.125718
0.12629
0.12686
0.127426
0.127987
0.128543
0.129093
0.129637
0.130174
0.130703
0.131223
0.131735
0.132238
0.132731
0.133214
0.133686
0.134147
0.134596
0.135034
0.13546
0.135873
0.136274
0.136662
0.137037
0.137399
0.137747
0.138083
0.138405
0.138714
0.13901
0.139292
0.139562
0.139818
0.140062
0.140292
0.14051
0.140716
0.140909
0.141091
0.14126
0.141418
0.141565
0.1417
0.141825
0.141939
0.142043
0.142136
0.142221
0.142295
0.142361
0.142417
0.142466
0.142505
0.142537
0.142561
0.142578
0.142588
0.14259
0.142586
0.142576
0.142559
0.142537
0.142509
0.142476
0.142438
0.142395
0.142347
0.142295
0.142239
0.142179
0.142114
0.142047
0.141976
0.141902
0.141824
0.141744
0.141662
0.141576
0.141489
0.141399
0.141307
0.141214
0.141118
0.141021
0.140922
0.140822
0.140721
0.140619
0.140515
0.140411
0.140305
0.140199
0.140092
0.139985
0.139877
0.139769
0.13966
0.139551
0.139442
0.139332
0.139223
0.139113
0.139004
0.138894
0.138785
0.138675
0.138566
0.138457
0.138349
0.13824
0.138132
0.138024
0.137917
0.13781
0.137704
0.137598
0.137492
0.137387
0.137282
0.137178
0.137075
0.136972
0.136869
0.136767
0.136666
0.136566
0.136465
0.136366
0.136267
0.136169
0.136071
0.135974
0.135878
0.135782
0.135687
0.135593
0.135499
0.135406
0.135313
0.135221
0.13513
0.135039
0.134949
0.134859
0.13477
0.134682
0.134594
0.134507
0.13442
0.134334
0.134249
0.134164
0.13408
0.133996
0.133913
0.13383
0.133748
0.133667
0.133586
0.133505
0.133425
0.133346
0.133267
0.133188
0.13311
0.133032
0.132955
0.132879
0.132802
0.132727
0.132651
0.132577
0.132502
0.132428
0.132355
0.132281
0.132209
0.132136
0.132064
0.131993
0.131921
0.131851
0.13178
0.13171
0.13164
0.131571
0.131502
0.131433
0.131365
0.131296
0.131229
0.131161
0.131094
0.131027
0.130961
0.130895
0.130829
0.130763
0.130698
0.130633
0.130568
0.130504
0.130439
0.130375
0.130312
0.130248
0.130185
0.130122
0.13006
0.129997
0.129935
0.129874
0.129812
0.129751
0.12969
0.129629
0.129568
0.129508
0.129448
0.129388
0.129328
0.129269
0.12921
0.129151
0.129092
0.129034
0.128976
0.128918
0.12886
0.128803
0.128746
0.128689
0.128632
0.128576
0.12852
0.128464
0.128409
0.128353
0.128298
0.128244
0.128189
0.128135
0.128081
0.128028
0.127975
0.127922
0.127869
0.127817
0.127765
0.127714
0.127662
0.127611
0.127561
0.127511
0.127461
0.127412
0.127363
0.127315
0.127267
0.127219
0.127172
0.127125
0.127079
0.127033
0.126988
0.126943
0.126899
0.126856
0.126813
0.12677
0.126729
0.126688
0.126647
0.126607
0.126568
0.12653
0.126492
0.126455
0.126419
0.126383
0.126349
0.126315
0.126282
0.12625
0.126219
0.126189
0.126159
0.126131
0.126104
0.126077
0.126052
0.126028
0.126005
0.125983
0.125962
0.125943
0.125924
0.125907
0.125891
0.125876
0.125862
0.12585
0.125839
0.125829
0.12582
0.125813
0.125807
0.125802
0.125797
0.125797
0.1
0.0999988
0.100001
0.100008
0.100019
0.100035
0.100055
0.100079
0.100109
0.100143
0.100181
0.100225
0.100274
0.100327
0.100385
0.100448
0.100516
0.100589
0.100667
0.100749
0.100837
0.10093
0.101028
0.101131
0.10124
0.101354
0.101474
0.101599
0.10173
0.101868
0.102011
0.102161
0.102317
0.102481
0.102651
0.102828
0.103012
0.103204
0.103404
0.103612
0.103827
0.104051
0.104282
0.104523
0.104772
0.10503
0.105296
0.105572
0.105857
0.106151
0.106455
0.106768
0.107091
0.107424
0.107766
0.108118
0.108481
0.108853
0.109235
0.109628
0.11003
0.110442
0.110865
0.111297
0.111739
0.112191
0.112652
0.113123
0.113603
0.114092
0.11459
0.115096
0.115611
0.116133
0.116663
0.117199
0.117743
0.118292
0.118847
0.119408
0.119972
0.120541
0.121114
0.121689
0.122266
0.122845
0.123425
0.124005
0.124585
0.125163
0.12574
0.126314
0.126886
0.127453
0.128015
0.128573
0.129124
0.129669
0.130207
0.130738
0.13126
0.131773
0.132276
0.13277
0.133254
0.133726
0.134188
0.134638
0.135076
0.135502
0.135916
0.136317
0.136705
0.13708
0.137442
0.137791
0.138126
0.138448
0.138757
0.139053
0.139335
0.139604
0.13986
0.140103
0.140333
0.14055
0.140755
0.140948
0.141129
0.141297
0.141455
0.1416
0.141735
0.141859
0.141972
0.142076
0.142169
0.142252
0.142326
0.142391
0.142446
0.142494
0.142533
0.142564
0.142587
0.142603
0.142612
0.142614
0.142609
0.142598
0.142581
0.142558
0.142529
0.142495
0.142456
0.142412
0.142364
0.142311
0.142254
0.142193
0.142128
0.14206
0.141988
0.141914
0.141836
0.141755
0.141672
0.141586
0.141497
0.141407
0.141315
0.14122
0.141124
0.141026
0.140927
0.140827
0.140725
0.140622
0.140517
0.140412
0.140306
0.1402
0.140092
0.139984
0.139876
0.139767
0.139658
0.139548
0.139438
0.139328
0.139218
0.139108
0.138998
0.138888
0.138778
0.138668
0.138558
0.138448
0.138339
0.13823
0.138122
0.138013
0.137905
0.137798
0.137691
0.137584
0.137478
0.137372
0.137267
0.137163
0.137058
0.136955
0.136852
0.13675
0.136648
0.136547
0.136446
0.136346
0.136247
0.136148
0.13605
0.135952
0.135855
0.135759
0.135663
0.135568
0.135474
0.13538
0.135287
0.135194
0.135102
0.135011
0.13492
0.13483
0.134741
0.134652
0.134564
0.134476
0.134389
0.134302
0.134216
0.134131
0.134046
0.133962
0.133878
0.133795
0.133713
0.13363
0.133549
0.133468
0.133387
0.133307
0.133228
0.133149
0.13307
0.132992
0.132915
0.132838
0.132761
0.132685
0.132609
0.132534
0.132459
0.132384
0.13231
0.132237
0.132163
0.13209
0.132018
0.131946
0.131874
0.131803
0.131732
0.131662
0.131591
0.131521
0.131452
0.131383
0.131314
0.131245
0.131177
0.131109
0.131042
0.130975
0.130908
0.130841
0.130775
0.130709
0.130643
0.130578
0.130513
0.130448
0.130383
0.130319
0.130255
0.130191
0.130128
0.130065
0.130002
0.129939
0.129877
0.129814
0.129752
0.129691
0.129629
0.129568
0.129507
0.129447
0.129386
0.129326
0.129266
0.129207
0.129147
0.129088
0.129029
0.12897
0.128912
0.128854
0.128796
0.128738
0.128681
0.128624
0.128567
0.12851
0.128454
0.128398
0.128342
0.128287
0.128231
0.128176
0.128122
0.128067
0.128013
0.12796
0.127906
0.127853
0.1278
0.127748
0.127696
0.127644
0.127592
0.127541
0.127491
0.12744
0.12739
0.127341
0.127292
0.127243
0.127195
0.127147
0.1271
0.127053
0.127007
0.126961
0.126915
0.12687
0.126826
0.126782
0.126739
0.126697
0.126655
0.126613
0.126573
0.126533
0.126493
0.126455
0.126417
0.12638
0.126343
0.126308
0.126273
0.126239
0.126206
0.126174
0.126142
0.126112
0.126083
0.126054
0.126027
0.126
0.125975
0.125951
0.125927
0.125905
0.125884
0.125865
0.125846
0.125829
0.125812
0.125797
0.125784
0.125771
0.12576
0.12575
0.125741
0.125734
0.125728
0.125722
0.125718
0.125718
0.1
0.0999988
0.100001
0.100008
0.100019
0.100035
0.100055
0.100079
0.100108
0.100142
0.100181
0.100224
0.100272
0.100326
0.100383
0.100446
0.100514
0.100587
0.100664
0.100746
0.100834
0.100926
0.101024
0.101127
0.101235
0.101349
0.101468
0.101593
0.101724
0.101861
0.102004
0.102153
0.102309
0.102472
0.102642
0.102818
0.103002
0.103194
0.103393
0.1036
0.103815
0.104038
0.10427
0.10451
0.104758
0.105016
0.105282
0.105558
0.105842
0.106136
0.10644
0.106753
0.107076
0.107408
0.10775
0.108103
0.108465
0.108838
0.10922
0.109613
0.110015
0.110428
0.110851
0.111284
0.111727
0.112179
0.112642
0.113113
0.113595
0.114085
0.114584
0.115091
0.115607
0.116131
0.116662
0.1172
0.117745
0.118297
0.118854
0.119416
0.119983
0.120554
0.121128
0.121705
0.122285
0.122866
0.123448
0.12403
0.124612
0.125193
0.125772
0.126348
0.126922
0.127491
0.128055
0.128615
0.129168
0.129715
0.130255
0.130787
0.13131
0.131825
0.13233
0.132825
0.133309
0.133783
0.134246
0.134696
0.135135
0.135562
0.135976
0.136377
0.136766
0.137141
0.137503
0.137852
0.138187
0.138509
0.138817
0.139112
0.139394
0.139662
0.139918
0.14016
0.140389
0.140606
0.14081
0.141002
0.141182
0.14135
0.141506
0.141651
0.141784
0.141907
0.14202
0.142121
0.142213
0.142296
0.142368
0.142432
0.142487
0.142533
0.142571
0.142601
0.142623
0.142638
0.142646
0.142646
0.14264
0.142628
0.14261
0.142586
0.142556
0.142522
0.142482
0.142437
0.142387
0.142333
0.142275
0.142213
0.142148
0.142078
0.142006
0.14193
0.141851
0.141769
0.141685
0.141598
0.141509
0.141418
0.141324
0.141229
0.141132
0.141034
0.140933
0.140832
0.140729
0.140625
0.14052
0.140414
0.140308
0.1402
0.140092
0.139983
0.139874
0.139764
0.139654
0.139543
0.139433
0.139322
0.139211
0.1391
0.138989
0.138878
0.138767
0.138656
0.138546
0.138435
0.138325
0.138216
0.138106
0.137997
0.137888
0.13778
0.137672
0.137565
0.137458
0.137351
0.137245
0.13714
0.137035
0.136931
0.136827
0.136724
0.136621
0.136519
0.136418
0.136317
0.136217
0.136117
0.136018
0.13592
0.135822
0.135725
0.135629
0.135533
0.135438
0.135343
0.135249
0.135156
0.135063
0.134971
0.13488
0.134789
0.134699
0.134609
0.13452
0.134432
0.134344
0.134257
0.13417
0.134084
0.133998
0.133914
0.133829
0.133745
0.133662
0.133579
0.133497
0.133415
0.133334
0.133253
0.133173
0.133093
0.133014
0.132935
0.132857
0.132779
0.132702
0.132625
0.132549
0.132473
0.132397
0.132322
0.132247
0.132173
0.132099
0.132026
0.131953
0.13188
0.131808
0.131736
0.131664
0.131593
0.131522
0.131452
0.131382
0.131312
0.131243
0.131174
0.131105
0.131036
0.130968
0.130901
0.130833
0.130766
0.130699
0.130633
0.130566
0.1305
0.130435
0.130369
0.130304
0.13024
0.130175
0.130111
0.130047
0.129983
0.12992
0.129857
0.129794
0.129731
0.129669
0.129607
0.129545
0.129483
0.129422
0.129361
0.1293
0.129239
0.129179
0.129119
0.129059
0.128999
0.12894
0.128881
0.128822
0.128764
0.128705
0.128647
0.12859
0.128532
0.128475
0.128418
0.128361
0.128305
0.128249
0.128193
0.128137
0.128082
0.128027
0.127972
0.127918
0.127864
0.12781
0.127756
0.127703
0.127651
0.127598
0.127546
0.127494
0.127443
0.127392
0.127341
0.127291
0.127241
0.127192
0.127143
0.127094
0.127046
0.126999
0.126952
0.126905
0.126859
0.126813
0.126768
0.126724
0.12668
0.126636
0.126593
0.126551
0.126509
0.126469
0.126428
0.126389
0.12635
0.126312
0.126274
0.126238
0.126202
0.126167
0.126133
0.126099
0.126067
0.126035
0.126005
0.125975
0.125946
0.125919
0.125892
0.125866
0.125842
0.125819
0.125796
0.125775
0.125755
0.125736
0.125719
0.125702
0.125687
0.125673
0.125661
0.12565
0.12564
0.125631
0.125623
0.125617
0.125612
0.125607
0.125607
0.1
0.0999988
0.100001
0.100008
0.100019
0.100035
0.100054
0.100079
0.100108
0.100141
0.10018
0.100223
0.100271
0.100324
0.100381
0.100444
0.100511
0.100583
0.100661
0.100743
0.10083
0.100922
0.101019
0.101121
0.101229
0.101342
0.101461
0.101585
0.101716
0.101852
0.101994
0.102143
0.102299
0.102461
0.10263
0.102806
0.102989
0.10318
0.103379
0.103585
0.1038
0.104022
0.104253
0.104493
0.104741
0.104998
0.105264
0.105539
0.105823
0.106117
0.10642
0.106733
0.107055
0.107388
0.10773
0.108083
0.108445
0.108818
0.1092
0.109593
0.109997
0.11041
0.110833
0.111267
0.111711
0.112164
0.112628
0.113101
0.113583
0.114075
0.114575
0.115084
0.115602
0.116128
0.116661
0.117201
0.117748
0.118302
0.118861
0.119426
0.119995
0.120569
0.121146
0.121726
0.122309
0.122893
0.123477
0.124063
0.124647
0.125231
0.125813
0.126392
0.126968
0.12754
0.128107
0.128669
0.129225
0.129774
0.130316
0.13085
0.131375
0.131892
0.132398
0.132895
0.133381
0.133856
0.13432
0.134772
0.135212
0.135639
0.136053
0.136455
0.136844
0.137219
0.137581
0.13793
0.138265
0.138586
0.138894
0.139189
0.13947
0.139738
0.139992
0.140234
0.140462
0.140678
0.140881
0.141071
0.14125
0.141417
0.141572
0.141715
0.141847
0.141969
0.14208
0.14218
0.142271
0.142352
0.142423
0.142485
0.142539
0.142583
0.14262
0.142648
0.142669
0.142682
0.142689
0.142688
0.142681
0.142667
0.142648
0.142622
0.142591
0.142555
0.142514
0.142467
0.142417
0.142361
0.142302
0.142239
0.142172
0.142101
0.142027
0.14195
0.14187
0.141787
0.141702
0.141614
0.141523
0.141431
0.141336
0.14124
0.141142
0.141042
0.140941
0.140838
0.140734
0.140629
0.140523
0.140416
0.140308
0.140199
0.14009
0.13998
0.13987
0.139759
0.139648
0.139536
0.139424
0.139312
0.1392
0.139088
0.138976
0.138864
0.138752
0.138641
0.138529
0.138418
0.138307
0.138196
0.138085
0.137975
0.137865
0.137756
0.137647
0.137539
0.137431
0.137323
0.137216
0.13711
0.137004
0.136899
0.136794
0.13669
0.136586
0.136483
0.136381
0.136279
0.136178
0.136077
0.135977
0.135878
0.135779
0.135681
0.135584
0.135487
0.135391
0.135295
0.1352
0.135106
0.135012
0.134919
0.134827
0.134735
0.134644
0.134553
0.134463
0.134374
0.134285
0.134197
0.134109
0.134022
0.133936
0.13385
0.133765
0.13368
0.133596
0.133512
0.133429
0.133346
0.133264
0.133182
0.133101
0.133021
0.132941
0.132861
0.132782
0.132703
0.132625
0.132547
0.13247
0.132393
0.132317
0.132241
0.132166
0.13209
0.132016
0.131942
0.131868
0.131794
0.131721
0.131648
0.131576
0.131504
0.131433
0.131361
0.131291
0.13122
0.13115
0.13108
0.131011
0.130942
0.130873
0.130804
0.130736
0.130668
0.130601
0.130534
0.130467
0.1304
0.130334
0.130268
0.130202
0.130137
0.130071
0.130007
0.129942
0.129878
0.129814
0.12975
0.129686
0.129623
0.12956
0.129497
0.129435
0.129373
0.129311
0.129249
0.129188
0.129127
0.129066
0.129005
0.128945
0.128885
0.128825
0.128765
0.128706
0.128647
0.128588
0.12853
0.128471
0.128414
0.128356
0.128298
0.128241
0.128184
0.128128
0.128071
0.128015
0.12796
0.127904
0.127849
0.127794
0.12774
0.127686
0.127632
0.127578
0.127525
0.127472
0.12742
0.127368
0.127316
0.127265
0.127214
0.127163
0.127113
0.127063
0.127014
0.126965
0.126916
0.126868
0.126821
0.126774
0.126727
0.126682
0.126636
0.126591
0.126547
0.126503
0.12646
0.126417
0.126375
0.126334
0.126294
0.126254
0.126215
0.126176
0.126138
0.126101
0.126065
0.12603
0.125995
0.125962
0.125929
0.125897
0.125866
0.125836
0.125808
0.12578
0.125753
0.125727
0.125702
0.125678
0.125656
0.125635
0.125614
0.125595
0.125578
0.125561
0.125546
0.125532
0.125519
0.125507
0.125497
0.125488
0.125481
0.125474
0.125469
0.125465
0.125465
0.1
0.0999988
0.100001
0.100008
0.100019
0.100034
0.100054
0.100078
0.100107
0.100141
0.100179
0.100222
0.100269
0.100322
0.100379
0.100441
0.100508
0.10058
0.100656
0.100738
0.100824
0.100916
0.101013
0.101114
0.101221
0.101334
0.101452
0.101576
0.101705
0.101841
0.101983
0.102131
0.102286
0.102447
0.102615
0.102791
0.102974
0.103164
0.103362
0.103567
0.103781
0.104003
0.104233
0.104472
0.10472
0.104976
0.105241
0.105516
0.1058
0.106093
0.106396
0.106708
0.107031
0.107363
0.107705
0.108058
0.10842
0.108793
0.109176
0.109569
0.109973
0.110387
0.110812
0.111246
0.111691
0.112146
0.11261
0.113085
0.113569
0.114062
0.114565
0.115076
0.115596
0.116123
0.116659
0.117202
0.117752
0.118309
0.118871
0.119439
0.120011
0.120588
0.121168
0.121752
0.122338
0.122925
0.123513
0.124102
0.12469
0.125277
0.125863
0.126445
0.127025
0.1276
0.12817
0.128735
0.129294
0.129846
0.130391
0.130927
0.131455
0.131974
0.132483
0.132981
0.133469
0.133946
0.134411
0.134864
0.135305
0.135733
0.136148
0.136551
0.13694
0.137315
0.137677
0.138026
0.13836
0.138682
0.138989
0.139283
0.139563
0.13983
0.140083
0.140324
0.140551
0.140765
0.140967
0.141156
0.141333
0.141498
0.141652
0.141794
0.141924
0.142044
0.142153
0.142252
0.142341
0.14242
0.14249
0.14255
0.142602
0.142645
0.142679
0.142706
0.142725
0.142736
0.142741
0.142738
0.14273
0.142714
0.142693
0.142666
0.142633
0.142595
0.142552
0.142504
0.142452
0.142395
0.142334
0.142269
0.142201
0.142128
0.142053
0.141974
0.141893
0.141808
0.141721
0.141632
0.14154
0.141446
0.14135
0.141252
0.141152
0.141051
0.140949
0.140844
0.140739
0.140633
0.140525
0.140417
0.140307
0.140197
0.140087
0.139975
0.139864
0.139751
0.139639
0.139526
0.139413
0.1393
0.139186
0.139073
0.13896
0.138846
0.138733
0.13862
0.138507
0.138394
0.138282
0.13817
0.138058
0.137947
0.137836
0.137725
0.137615
0.137505
0.137396
0.137287
0.137179
0.137071
0.136964
0.136857
0.136751
0.136646
0.136541
0.136437
0.136333
0.13623
0.136128
0.136026
0.135925
0.135824
0.135724
0.135625
0.135526
0.135428
0.135331
0.135234
0.135138
0.135043
0.134948
0.134854
0.13476
0.134667
0.134575
0.134483
0.134392
0.134301
0.134211
0.134122
0.134033
0.133945
0.133858
0.133771
0.133684
0.133598
0.133513
0.133428
0.133344
0.13326
0.133177
0.133094
0.133012
0.13293
0.132849
0.132769
0.132689
0.132609
0.13253
0.132451
0.132373
0.132295
0.132217
0.13214
0.132064
0.131988
0.131912
0.131837
0.131762
0.131688
0.131614
0.13154
0.131467
0.131394
0.131322
0.131249
0.131178
0.131106
0.131035
0.130965
0.130894
0.130824
0.130755
0.130685
0.130616
0.130548
0.130479
0.130411
0.130344
0.130276
0.130209
0.130142
0.130076
0.13001
0.129944
0.129878
0.129813
0.129748
0.129683
0.129618
0.129554
0.12949
0.129426
0.129363
0.1293
0.129237
0.129174
0.129112
0.12905
0.128988
0.128927
0.128866
0.128805
0.128744
0.128683
0.128623
0.128563
0.128504
0.128444
0.128385
0.128326
0.128268
0.128209
0.128151
0.128094
0.128036
0.127979
0.127922
0.127866
0.12781
0.127754
0.127698
0.127643
0.127588
0.127533
0.127479
0.127425
0.127371
0.127318
0.127265
0.127212
0.12716
0.127108
0.127057
0.127006
0.126955
0.126905
0.126855
0.126806
0.126757
0.126709
0.126661
0.126613
0.126566
0.12652
0.126474
0.126429
0.126384
0.12634
0.126296
0.126253
0.126211
0.12617
0.126129
0.126088
0.126049
0.12601
0.125972
0.125935
0.125898
0.125862
0.125827
0.125794
0.12576
0.125728
0.125697
0.125667
0.125637
0.125609
0.125582
0.125556
0.125531
0.125507
0.125484
0.125462
0.125442
0.125423
0.125405
0.125388
0.125372
0.125358
0.125345
0.125333
0.125323
0.125314
0.125306
0.1253
0.125295
0.12529
0.12529
0.1
0.0999988
0.100001
0.100008
0.100019
0.100034
0.100054
0.100078
0.100106
0.100139
0.100177
0.10022
0.100267
0.100319
0.100376
0.100438
0.100504
0.100575
0.100651
0.100732
0.100818
0.100909
0.101005
0.101106
0.101213
0.101324
0.101442
0.101565
0.101693
0.101828
0.101969
0.102116
0.10227
0.102431
0.102598
0.102773
0.102955
0.103144
0.103341
0.103546
0.103759
0.10398
0.104209
0.104447
0.104694
0.10495
0.105215
0.105489
0.105772
0.106065
0.106367
0.106679
0.107001
0.107333
0.107676
0.108028
0.108391
0.108764
0.109147
0.109541
0.109945
0.11036
0.110785
0.111221
0.111667
0.112123
0.112589
0.113066
0.113551
0.114047
0.114552
0.115065
0.115588
0.116118
0.116657
0.117203
0.117756
0.118316
0.118882
0.119453
0.120029
0.12061
0.121194
0.121782
0.122372
0.122963
0.123556
0.124149
0.124741
0.125332
0.125922
0.126508
0.127092
0.127671
0.128245
0.128814
0.129376
0.129932
0.130479
0.131019
0.13155
0.132071
0.132583
0.133083
0.133573
0.134052
0.134519
0.134973
0.135415
0.135844
0.136261
0.136663
0.137053
0.137429
0.137791
0.138139
0.138473
0.138794
0.139101
0.139394
0.139673
0.139939
0.140191
0.14043
0.140656
0.140869
0.141069
0.141256
0.141432
0.141595
0.141746
0.141886
0.142015
0.142133
0.14224
0.142337
0.142423
0.1425
0.142568
0.142626
0.142675
0.142716
0.142749
0.142773
0.14279
0.1428
0.142802
0.142797
0.142786
0.142769
0.142745
0.142716
0.142682
0.142642
0.142596
0.142547
0.142492
0.142433
0.142371
0.142304
0.142233
0.142159
0.142082
0.142001
0.141918
0.141832
0.141743
0.141651
0.141558
0.141462
0.141364
0.141265
0.141163
0.14106
0.140956
0.14085
0.140743
0.140635
0.140526
0.140416
0.140305
0.140193
0.140081
0.139968
0.139854
0.13974
0.139626
0.139512
0.139397
0.139282
0.139167
0.139052
0.138937
0.138822
0.138708
0.138593
0.138479
0.138364
0.13825
0.138137
0.138023
0.13791
0.137798
0.137686
0.137574
0.137463
0.137352
0.137242
0.137132
0.137023
0.136914
0.136806
0.136698
0.136592
0.136485
0.136379
0.136274
0.13617
0.136066
0.135963
0.13586
0.135758
0.135657
0.135556
0.135456
0.135357
0.135258
0.13516
0.135062
0.134965
0.134869
0.134773
0.134678
0.134584
0.13449
0.134397
0.134305
0.134213
0.134122
0.134031
0.133941
0.133851
0.133762
0.133674
0.133586
0.133499
0.133413
0.133326
0.133241
0.133156
0.133072
0.132988
0.132904
0.132821
0.132739
0.132657
0.132576
0.132495
0.132414
0.132334
0.132255
0.132176
0.132097
0.132019
0.131942
0.131864
0.131788
0.131711
0.131635
0.13156
0.131485
0.13141
0.131336
0.131262
0.131188
0.131115
0.131042
0.13097
0.130898
0.130826
0.130755
0.130684
0.130613
0.130543
0.130473
0.130403
0.130334
0.130265
0.130196
0.130128
0.13006
0.129992
0.129925
0.129858
0.129791
0.129724
0.129658
0.129592
0.129526
0.129461
0.129396
0.129331
0.129267
0.129203
0.129139
0.129075
0.129012
0.128949
0.128886
0.128823
0.128761
0.128699
0.128637
0.128576
0.128515
0.128454
0.128393
0.128333
0.128273
0.128213
0.128153
0.128094
0.128035
0.127977
0.127918
0.12786
0.127802
0.127745
0.127688
0.127631
0.127574
0.127518
0.127462
0.127407
0.127351
0.127297
0.127242
0.127188
0.127134
0.127081
0.127027
0.126975
0.126922
0.12687
0.126819
0.126768
0.126717
0.126667
0.126617
0.126568
0.126519
0.12647
0.126423
0.126375
0.126328
0.126282
0.126236
0.126191
0.126146
0.126102
0.126059
0.126016
0.125974
0.125933
0.125892
0.125852
0.125813
0.125774
0.125737
0.1257
0.125664
0.125628
0.125594
0.125561
0.125528
0.125496
0.125466
0.125436
0.125407
0.12538
0.125353
0.125328
0.125304
0.12528
0.125258
0.125238
0.125218
0.1252
0.125183
0.125167
0.125152
0.125139
0.125127
0.125117
0.125108
0.1251
0.125093
0.125088
0.125083
0.125083
0.1
0.0999988
0.100001
0.100008
0.100019
0.100034
0.100053
0.100077
0.100105
0.100138
0.100176
0.100218
0.100265
0.100316
0.100373
0.100434
0.1005
0.10057
0.100646
0.100726
0.100811
0.100901
0.100996
0.101097
0.101202
0.101313
0.101429
0.101552
0.101679
0.101813
0.101953
0.1021
0.102252
0.102412
0.102578
0.102752
0.102933
0.103121
0.103317
0.103521
0.103733
0.103953
0.104182
0.104419
0.104665
0.10492
0.105184
0.105457
0.105739
0.106032
0.106333
0.106645
0.106967
0.107299
0.107641
0.107993
0.108356
0.108729
0.109113
0.109508
0.109913
0.110328
0.110755
0.111192
0.111639
0.112097
0.112565
0.113043
0.113531
0.114029
0.114536
0.115052
0.115578
0.116112
0.116654
0.117203
0.11776
0.118324
0.118894
0.119469
0.12005
0.120635
0.121224
0.121816
0.122411
0.123007
0.123605
0.124202
0.1248
0.125396
0.12599
0.126581
0.127169
0.127753
0.128331
0.128904
0.129471
0.13003
0.130582
0.131125
0.131659
0.132184
0.132698
0.133202
0.133694
0.134175
0.134643
0.1351
0.135543
0.135973
0.136391
0.136794
0.137184
0.13756
0.137922
0.13827
0.138604
0.138924
0.13923
0.139522
0.1398
0.140064
0.140315
0.140553
0.140777
0.140988
0.141186
0.141372
0.141545
0.141706
0.141855
0.141993
0.142119
0.142235
0.142339
0.142434
0.142518
0.142592
0.142657
0.142713
0.14276
0.142798
0.142828
0.14285
0.142864
0.142871
0.142871
0.142864
0.142851
0.142831
0.142805
0.142773
0.142736
0.142694
0.142646
0.142594
0.142537