# vtk DataFile Version 3.0
LBM Fluid Grid
ASCII
DATASET STRUCTURED_POINTS
DIMENSIONS 400 150 1
ORIGIN 0 0 0
SPACING 1 1 1
POINT_DATA 60000
SCALARS VelocityMagnitude double 1
LOOKUP_TABLE default
0.1
0.0999879
0.0999839
0.0999879
0.0999998
0.100019
0.100046
0.100079
0.100118
0.100162
0.100212
0.100266
0.100324
0.100385
0.100451
0.100519
0.10059
0.100665
0.100743
0.100824
0.100909
0.100997
0.10109
0.101188
0.10129
0.101398
0.101511
0.101631
0.101756
0.101889
0.102028
0.102175
0.102329
0.102491
0.10266
0.102837
0.103022
0.103215
0.103416
0.103626
0.103843
0.104068
0.104302
0.104544
0.104795
0.105054
0.105321
0.105598
0.105883
0.106177
0.10648
0.106793
0.107115
0.107447
0.107788
0.108139
0.1085
0.108871
0.109252
0.109643
0.110045
0.110456
0.110878
0.11131
0.111752
0.112203
0.112664
0.113135
0.113615
0.114104
0.114602
0.115108
0.115622
0.116144
0.116673
0.117209
0.117752
0.118301
0.118855
0.119414
0.119978
0.120545
0.121116
0.12169
0.122265
0.122842
0.12342
0.123998
0.124576
0.125153
0.125727
0.126299
0.126869
0.127434
0.127994
0.12855
0.1291
0.129643
0.13018
0.130709
0.131229
0.131741
0.132244
0.132737
0.133219
0.133691
0.134152
0.134602
0.13504
0.135465
0.135879
0.136279
0.136667
0.137043
0.137405
0.137753
0.138089
0.138411
0.13872
0.139016
0.139298
0.139568
0.139824
0.140068
0.140298
0.140516
0.140722
0.140915
0.141096
0.141266
0.141424
0.141571
0.141706
0.141831
0.141945
0.142049
0.142143
0.142228
0.142303
0.142369
0.142426
0.142474
0.142514
0.142547
0.142571
0.142588
0.142598
0.142601
0.142598
0.142588
0.142572
0.142551
0.142523
0.142491
0.142453
0.14241
0.142363
0.142312
0.142256
0.142196
0.142133
0.142065
0.141995
0.141921
0.141845
0.141765
0.141683
0.141598
0.141511
0.141422
0.141331
0.141238
0.141143
0.141047
0.140949
0.140849
0.140749
0.140647
0.140544
0.140441
0.140336
0.140231
0.140124
0.140018
0.139911
0.139803
0.139695
0.139587
0.139478
0.139369
0.139261
0.139152
0.139043
0.138934
0.138825
0.138717
0.138608
0.1385
0.138392
0.138284
0.138177
0.13807
0.137963
0.137856
0.137751
0.137645
0.13754
0.137436
0.137332
0.137228
0.137125
0.137023
0.136921
0.13682
0.136719
0.136619
0.136519
0.13642
0.136322
0.136224
0.136127
0.136031
0.135935
0.13584
0.135745
0.135651
0.135558
0.135465
0.135373
0.135281
0.13519
0.1351
0.13501
0.134921
0.134833
0.134745
0.134657
0.13457
0.134484
0.134398
0.134313
0.134229
0.134145
0.134061
0.133978
0.133896
0.133814
0.133733
0.133652
0.133572
0.133492
0.133412
0.133333
0.133255
0.133177
0.1331
0.133023
0.132946
0.13287
0.132794
0.132719
0.132644
0.13257
0.132496
0.132422
0.132349
0.132276
0.132204
0.132131
0.13206
0.131988
0.131918
0.131847
0.131777
0.131707
0.131637
0.131568
0.131499
0.13143
0.131362
0.131294
0.131227
0.131159
0.131092
0.131026
0.130959
0.130893
0.130827
0.130762
0.130696
0.130632
0.130567
0.130502
0.130438
0.130374
0.130311
0.130247
0.130184
0.130122
0.130059
0.129997
0.129935
0.129873
0.129811
0.12975
0.129689
0.129628
0.129568
0.129508
0.129448
0.129388
0.129329
0.129269
0.129211
0.129152
0.129093
0.129035
0.128977
0.12892
0.128863
0.128806
0.128749
0.128692
0.128636
0.12858
0.128525
0.128469
0.128414
0.12836
0.128305
0.128251
0.128197
0.128144
0.128091
0.128038
0.127985
0.127933
0.127882
0.12783
0.127779
0.127729
0.127678
0.127628
0.127579
0.12753
0.127481
0.127433
0.127385
0.127338
0.127291
0.127245
0.127199
0.127154
0.127109
0.127064
0.127021
0.126977
0.126935
0.126893
0.126851
0.12681
0.12677
0.12673
0.126691
0.126653
0.126616
0.126579
0.126543
0.126507
0.126473
0.126439
0.126406
0.126374
0.126343
0.126313
0.126283
0.126255
0.126227
0.126201
0.126175
0.126151
0.126127
0.126105
0.126084
0.126064
0.126045
0.126027
0.12601
0.125994
0.12598
0.125967
0.125955
0.125944
0.125935
0.125926
0.125919
0.125913
0.125908
0.125904
0.125904
0.1
0.0999879
0.0999839
0.0999879
0.0999998
0.100019
0.100046
0.100079
0.100118
0.100162
0.100212
0.100266
0.100324
0.100386
0.100451
0.100519
0.100591
0.100665
0.100743
0.100824
0.100909
0.100998
0.101091
0.101188
0.101291
0.101398
0.101512
0.101631
0.101757
0.10189
0.102029
0.102176
0.10233
0.102492
0.102661
0.102839
0.103024
0.103217
0.103418
0.103627
0.103845
0.10407
0.104304
0.104546
0.104797
0.105056
0.105323
0.1056
0.105885
0.106179
0.106483
0.106795
0.107117
0.107449
0.10779
0.108141
0.108502
0.108873
0.109254
0.109646
0.110047
0.110458
0.11088
0.111312
0.111753
0.112205
0.112666
0.113136
0.113616
0.114105
0.114602
0.115108
0.115622
0.116144
0.116673
0.117209
0.117752
0.1183
0.118854
0.119413
0.119976
0.120544
0.121114
0.121687
0.122263
0.122839
0.123417
0.123995
0.124572
0.125148
0.125723
0.126295
0.126863
0.127428
0.127989
0.128544
0.129094
0.129637
0.130173
0.130702
0.131222
0.131734
0.132236
0.132729
0.133211
0.133683
0.134144
0.134593
0.135031
0.135457
0.13587
0.136271
0.136659
0.137034
0.137396
0.137745
0.13808
0.138403
0.138712
0.139007
0.13929
0.139559
0.139816
0.140059
0.14029
0.140508
0.140714
0.140907
0.141089
0.141259
0.141417
0.141563
0.141699
0.141824
0.141939
0.142043
0.142137
0.142222
0.142297
0.142363
0.14242
0.142469
0.142509
0.142541
0.142566
0.142583
0.142594
0.142597
0.142593
0.142584
0.142568
0.142547
0.142519
0.142487
0.142449
0.142407
0.14236
0.142308
0.142253
0.142193
0.14213
0.142063
0.141992
0.141919
0.141842
0.141763
0.141681
0.141597
0.14151
0.141421
0.14133
0.141237
0.141142
0.141046
0.140948
0.140849
0.140748
0.140646
0.140544
0.14044
0.140336
0.14023
0.140124
0.140018
0.139911
0.139803
0.139695
0.139587
0.139479
0.13937
0.139262
0.139153
0.139044
0.138935
0.138827
0.138718
0.13861
0.138501
0.138394
0.138286
0.138179
0.138072
0.137965
0.137859
0.137753
0.137648
0.137543
0.137438
0.137335
0.137231
0.137128
0.137026
0.136924
0.136823
0.136723
0.136623
0.136523
0.136424
0.136326
0.136229
0.136132
0.136035
0.13594
0.135844
0.13575
0.135656
0.135563
0.13547
0.135378
0.135287
0.135196
0.135105
0.135016
0.134927
0.134838
0.13475
0.134663
0.134576
0.13449
0.134405
0.13432
0.134235
0.134151
0.134068
0.133985
0.133903
0.133821
0.13374
0.133659
0.133579
0.133499
0.13342
0.133341
0.133263
0.133185
0.133108
0.133031
0.132954
0.132878
0.132803
0.132727
0.132653
0.132578
0.132504
0.132431
0.132358
0.132285
0.132213
0.132141
0.132069
0.131998
0.131927
0.131856
0.131786
0.131716
0.131647
0.131578
0.131509
0.131441
0.131372
0.131305
0.131237
0.13117
0.131103
0.131036
0.13097
0.130904
0.130838
0.130773
0.130707
0.130643
0.130578
0.130514
0.130449
0.130386
0.130322
0.130259
0.130196
0.130133
0.130071
0.130008
0.129946
0.129885
0.129823
0.129762
0.129701
0.129641
0.12958
0.12952
0.12946
0.1294
0.129341
0.129282
0.129223
0.129164
0.129106
0.129048
0.12899
0.128933
0.128875
0.128819
0.128762
0.128705
0.128649
0.128593
0.128538
0.128483
0.128428
0.128373
0.128319
0.128265
0.128211
0.128157
0.128104
0.128052
0.127999
0.127947
0.127895
0.127844
0.127793
0.127743
0.127692
0.127643
0.127593
0.127544
0.127496
0.127447
0.1274
0.127352
0.127306
0.127259
0.127213
0.127168
0.127123
0.127079
0.127035
0.126992
0.126949
0.126907
0.126866
0.126825
0.126785
0.126745
0.126706
0.126668
0.126631
0.126594
0.126558
0.126522
0.126488
0.126454
0.126421
0.126389
0.126358
0.126328
0.126299
0.12627
0.126243
0.126216
0.126191
0.126166
0.126143
0.126121
0.126099
0.126079
0.12606
0.126042
0.126026
0.12601
0.125996
0.125983
0.125971
0.12596
0.125951
0.125942
0.125935
0.125929
0.125924
0.12592
0.12592
0.1
0.0999879
0.0999839
0.0999879
0.0999998
0.100019
0.100046
0.100079
0.100118
0.100162
0.100212
0.100266
0.100324
0.100385
0.100451
0.100519
0.10059
0.100665
0.100743
0.100824
0.100909
0.100997
0.10109
0.101188
0.10129
0.101398
0.101511
0.101631
0.101756
0.101889
0.102028
0.102175
0.102329
0.102491
0.10266
0.102837
0.103022
0.103215
0.103416
0.103626
0.103843
0.104068
0.104302
0.104544
0.104795
0.105054
0.105321
0.105598
0.105883
0.106177
0.10648
0.106793
0.107115
0.107447
0.107788
0.108139
0.1085
0.108871
0.109252
0.109643
0.110045
0.110456
0.110878
0.11131
0.111752
0.112203
0.112664
0.113135
0.113615
0.114104
0.114602
0.115108
0.115622
0.116144
0.116673
0.117209
0.117752
0.118301
0.118855
0.119414
0.119978
0.120545
0.121116
0.12169
0.122265
0.122842
0.12342
0.123998
0.124576
0.125153
0.125727
0.126299
0.126869
0.127434
0.127994
0.12855
0.1291
0.129643
0.13018
0.130709
0.131229
0.131741
0.132244
0.132737
0.133219
0.133691
0.134152
0.134602
0.13504
0.135465
0.135879
0.136279
0.136667
0.137043
0.137405
0.137753
0.138089
0.138411
0.13872
0.139016
0.139298
0.139568
0.139824
0.140068
0.140298
0.140516
0.140722
0.140915
0.141096
0.141266
0.141424
0.141571
0.141706
0.141831
0.141945
0.142049
0.142143
0.142228
0.142303
0.142369
0.142426
0.142474
0.142514
0.142547
0.142571
0.142588
0.142598
0.142601
0.142598
0.142588
0.142572
0.142551
0.142523
0.142491
0.142453
0.14241
0.142363
0.142312
0.142256
0.142196
0.142133
0.142065
0.141995
0.141921
0.141845
0.141765
0.141683
0.141598
0.141511
0.141422
0.141331
0.141238
0.141143
0.141047
0.140949
0.140849
0.140749
0.140647
0.140544
0.140441
0.140336
0.140231
0.140124
0.140018
0.139911
0.139803
0.139695
0.139587
0.139478
0.139369
0.139261
0.139152
0.139043
0.138934
0.138825
0.138717
0.138608
0.1385
0.138392
0.138284
0.138177
0.13807
0.137963
0.137856
0.137751
0.137645
0.13754
0.137436
0.137332
0.137228
0.137125
0.137023
0.136921
0.13682
0.136719
0.136619
0.136519
0.13642
0.136322
0.136224
0.136127
0.136031
0.135935
0.13584
0.135745
0.135651
0.135558
0.135465
0.135373
0.135281
0.13519
0.1351
0.13501
0.134921
0.134833
0.134745
0.134657
0.13457
0.134484
0.134398
0.134313
0.134229
0.134145
0.134061
0.133978
0.133896
0.133814
0.133733
0.133652
0.133572
0.133492
0.133412
0.133333
0.133255
0.133177
0.1331
0.133023
0.132946
0.13287
0.132794
0.132719
0.132644
0.13257
0.132496
0.132422
0.132349
0.132276
0.132204
0.132131
0.13206
0.131988
0.131918
0.131847
0.131777
0.131707
0.131637
0.131568
0.131499
0.13143
0.131362
0.131294
0.131227
0.131159
0.131092
0.131026
0.130959
0.130893
0.130827
0.130762
0.130696
0.130632
0.130567
0.130502
0.130438
0.130374
0.130311
0.130247
0.130184
0.130122
0.130059
0.129997
0.129935
0.129873
0.129811
0.12975
0.129689
0.129628
0.129568
0.129508
0.129448
0.129388
0.129329
0.129269
0.129211
0.129152
0.129093
0.129035
0.128977
0.12892
0.128863
0.128806
0.128749
0.128692
0.128636
0.12858
0.128525
0.128469
0.128414
0.12836
0.128305
0.128251
0.128197
0.128144
0.128091
0.128038
0.127985
0.127933
0.127882
0.12783
0.127779
0.127729
0.127678
0.127628
0.127579
0.12753
0.127481
0.127433
0.127385
0.127338
0.127291
0.127245
0.127199
0.127154
0.127109
0.127064
0.127021
0.126977
0.126935
0.126893
0.126851
0.12681
0.12677
0.12673
0.126691
0.126653
0.126616
0.126579
0.126543
0.126507
0.126473
0.126439
0.126406
0.126374
0.126343
0.126313
0.126283
0.126255
0.126227
0.126201
0.126175
0.126151
0.126127
0.126105
0.126084
0.126064
0.126045
0.126027
0.12601
0.125994
0.12598
0.125967
0.125955
0.125944
0.125935
0.125926
0.125919
0.125913
0.125908
0.125904
0.125904
0.1
0.0999879
0.0999839
0.099988
0.0999998
0.100019
0.100046
0.100078
0.100117
0.100162
0.100211
0.100265
0.100323
0.100385
0.10045
0.100518
0.100589
0.100664
0.100741
0.100822
0.100907
0.100996
0.101088
0.101186
0.101288
0.101395
0.101509
0.101628
0.101754
0.101886
0.102025
0.102172
0.102326
0.102487
0.102656
0.102833
0.103018
0.103211
0.103412
0.103621
0.103838
0.104063
0.104297
0.104539
0.104789
0.105048
0.105315
0.105592
0.105877
0.106171
0.106474
0.106786
0.107108
0.10744
0.107781
0.108132
0.108494
0.108865
0.109246
0.109637
0.110039
0.110451
0.110873
0.111305
0.111746
0.112198
0.11266
0.113131
0.113611
0.114101
0.114599
0.115106
0.115621
0.116143
0.116673
0.11721
0.117754
0.118303
0.118858
0.119418
0.119982
0.120551
0.121123
0.121697
0.122274
0.122852
0.12343
0.124009
0.124588
0.125165
0.125741
0.126314
0.126884
0.12745
0.128012
0.128568
0.129119
0.129663
0.1302
0.13073
0.131251
0.131764
0.132267
0.13276
0.133243
0.133716
0.134177
0.134627
0.135065
0.135491
0.135904
0.136305
0.136694
0.137069
0.137431
0.137779
0.138115
0.138437
0.138746
0.139041
0.139324
0.139593
0.139849
0.140092
0.140322
0.14054
0.140745
0.140938
0.141119
0.141288
0.141446
0.141592
0.141727
0.141852
0.141966
0.142069
0.142163
0.142247
0.142321
0.142386
0.142443
0.142491
0.142531
0.142563
0.142587
0.142603
0.142613
0.142616
0.142612
0.142601
0.142585
0.142563
0.142535
0.142502
0.142464
0.142421
0.142373
0.142321
0.142265
0.142205
0.142141
0.142073
0.142003
0.141929
0.141851
0.141772
0.141689
0.141604
0.141517
0.141427
0.141336
0.141242
0.141147
0.14105
0.140952
0.140852
0.140751
0.140649
0.140546
0.140442
0.140337
0.140231
0.140124
0.140017
0.13991
0.139802
0.139694
0.139585
0.139476
0.139367
0.139258
0.139149
0.139039
0.13893
0.138821
0.138712
0.138603
0.138495
0.138386
0.138278
0.13817
0.138063
0.137956
0.137849
0.137743
0.137637
0.137532
0.137427
0.137323
0.137219
0.137116
0.137013
0.136911
0.136809
0.136708
0.136608
0.136508
0.136409
0.13631
0.136212
0.136114
0.136018
0.135921
0.135826
0.135731
0.135637
0.135543
0.13545
0.135357
0.135265
0.135174
0.135083
0.134993
0.134904
0.134815
0.134727
0.134639
0.134552
0.134465
0.134379
0.134294
0.134209
0.134125
0.134041
0.133958
0.133875
0.133793
0.133711
0.13363
0.133549
0.133469
0.13339
0.13331
0.133232
0.133153
0.133076
0.132998
0.132921
0.132845
0.132769
0.132694
0.132618
0.132544
0.132469
0.132395
0.132322
0.132249
0.132176
0.132104
0.132032
0.13196
0.131889
0.131818
0.131748
0.131678
0.131608
0.131538
0.131469
0.1314
0.131332
0.131264
0.131196
0.131128
0.131061
0.130994
0.130927
0.130861
0.130795
0.130729
0.130664
0.130598
0.130533
0.130469
0.130404
0.13034
0.130277
0.130213
0.13015
0.130087
0.130024
0.129961
0.129899
0.129837
0.129776
0.129714
0.129653
0.129592
0.129531
0.129471
0.129411
0.129351
0.129291
0.129232
0.129173
0.129114
0.129055
0.128997
0.128939
0.128881
0.128824
0.128767
0.12871
0.128653
0.128597
0.128541
0.128485
0.128429
0.128374
0.128319
0.128265
0.12821
0.128157
0.128103
0.12805
0.127997
0.127944
0.127892
0.12784
0.127789
0.127737
0.127687
0.127636
0.127586
0.127537
0.127487
0.127439
0.12739
0.127343
0.127295
0.127248
0.127202
0.127156
0.12711
0.127065
0.127021
0.126977
0.126933
0.126891
0.126848
0.126807
0.126766
0.126725
0.126686
0.126647
0.126608
0.126571
0.126534
0.126498
0.126462
0.126427
0.126394
0.126361
0.126328
0.126297
0.126267
0.126237
0.126209
0.126181
0.126155
0.126129
0.126104
0.126081
0.126058
0.126037
0.126017
0.125998
0.12598
0.125963
0.125947
0.125933
0.12592
0.125908
0.125897
0.125887
0.125879
0.125872
0.125866
0.125861
0.125857
0.125857
0.1
0.099988
0.099984
0.099988
0.0999998
0.100019
0.100045
0.100078
0.100117
0.100162
0.100211
0.100265
0.100322
0.100384
0.100448
0.100516
0.100588
0.100662
0.100739
0.10082
0.100904
0.100993
0.101085
0.101182
0.101284
0.101391
0.101504
0.101623
0.101749
0.101881
0.10202
0.102166
0.10232
0.102481
0.10265
0.102827
0.103011
0.103204
0.103404
0.103613
0.10383
0.104055
0.104288
0.104529
0.104779
0.105038
0.105305
0.105581
0.105866
0.10616
0.106463
0.106776
0.107098
0.107429
0.10777
0.108122
0.108483
0.108854
0.109235
0.109627
0.110029
0.110441
0.110863
0.111296
0.111738
0.11219
0.112653
0.113124
0.113606
0.114096
0.114595
0.115103
0.115618
0.116142
0.116673
0.117211
0.117756
0.118307
0.118863
0.119424
0.11999
0.12056
0.121133
0.121709
0.122287
0.122867
0.123447
0.124028
0.124608
0.125187
0.125764
0.126339
0.12691
0.127478
0.128041
0.128599
0.129151
0.129696
0.130234
0.130765
0.131287
0.131801
0.132305
0.132799
0.133283
0.133756
0.134218
0.134669
0.135107
0.135534
0.135948
0.136349
0.136737
0.137112
0.137474
0.137823
0.138158
0.13848
0.138789
0.139084
0.139366
0.139635
0.13989
0.140133
0.140363
0.14058
0.140785
0.140977
0.141157
0.141326
0.141482
0.141628
0.141762
0.141886
0.141999
0.142102
0.142195
0.142278
0.142352
0.142416
0.142472
0.142519
0.142558
0.142589
0.142612
0.142628
0.142637
0.142639
0.142634
0.142623
0.142606
0.142583
0.142555
0.142521
0.142482
0.142438
0.14239
0.142337
0.14228
0.142219
0.142155
0.142087
0.142015
0.14194
0.141863
0.141782
0.141699
0.141613
0.141525
0.141435
0.141343
0.141249
0.141153
0.141055
0.140956
0.140856
0.140755
0.140652
0.140548
0.140443
0.140338
0.140231
0.140124
0.140017
0.139909
0.1398
0.139691
0.139582
0.139472
0.139363
0.139253
0.139143
0.139033
0.138924
0.138814
0.138704
0.138595
0.138486
0.138377
0.138268
0.13816
0.138052
0.137944
0.137837
0.13773
0.137624
0.137518
0.137412
0.137308
0.137203
0.137099
0.136996
0.136893
0.136791
0.136689
0.136588
0.136488
0.136388
0.136289
0.13619
0.136093
0.135995
0.135898
0.135802
0.135707
0.135612
0.135518
0.135424
0.135331
0.135239
0.135147
0.135056
0.134965
0.134875
0.134785
0.134697
0.134608
0.134521
0.134434
0.134347
0.134261
0.134176
0.134091
0.134007
0.133923
0.13384
0.133757
0.133675
0.133593
0.133512
0.133431
0.133351
0.133272
0.133192
0.133114
0.133035
0.132958
0.13288
0.132803
0.132727
0.132651
0.132575
0.1325
0.132425
0.132351
0.132277
0.132203
0.13213
0.132057
0.131985
0.131913
0.131841
0.13177
0.131699
0.131629
0.131558
0.131488
0.131419
0.13135
0.131281
0.131212
0.131144
0.131076
0.131008
0.130941
0.130874
0.130807
0.130741
0.130674
0.130609
0.130543
0.130478
0.130413
0.130348
0.130283
0.130219
0.130155
0.130092
0.130028
0.129965
0.129902
0.12984
0.129778
0.129716
0.129654
0.129592
0.129531
0.12947
0.129409
0.129349
0.129289
0.129229
0.129169
0.12911
0.12905
0.128992
0.128933
0.128875
0.128817
0.128759
0.128701
0.128644
0.128587
0.128531
0.128474
0.128418
0.128363
0.128307
0.128252
0.128197
0.128143
0.128089
0.128035
0.127981
0.127928
0.127875
0.127823
0.127771
0.127719
0.127668
0.127617
0.127566
0.127516
0.127466
0.127417
0.127368
0.127319
0.127271
0.127223
0.127176
0.12713
0.127083
0.127038
0.126992
0.126948
0.126904
0.12686
0.126817
0.126775
0.126733
0.126692
0.126651
0.126611
0.126572
0.126534
0.126496
0.126459
0.126422
0.126387
0.126352
0.126318
0.126285
0.126252
0.126221
0.12619
0.126161
0.126132
0.126104
0.126077
0.126052
0.126027
0.126003
0.125981
0.125959
0.125939
0.12592
0.125901
0.125885
0.125869
0.125854
0.125841
0.125829
0.125818
0.125808
0.1258
0.125793
0.125787
0.125782
0.125778
0.125778
0.1
0.0999881
0.0999841
0.0999881
0.0999999
0.100019
0.100045
0.100078
0.100117
0.100161
0.10021
0.100263
0.100321
0.100382
0.100447
0.100514
0.100585
0.100659
0.100736
0.100817
0.100901
0.100989
0.101081
0.101177
0.101279
0.101386
0.101499
0.101617
0.101742
0.101874
0.102013
0.102158
0.102312
0.102472
0.102641
0.102817
0.103001
0.103193
0.103393
0.103601
0.103818
0.104042
0.104275
0.104516
0.104766
0.105024
0.105291
0.105567
0.105852
0.106145
0.106448
0.10676
0.107082
0.107414
0.107755
0.108106
0.108467
0.108839
0.10922
0.109612
0.110015
0.110427
0.11085
0.111283
0.111726
0.112179
0.112642
0.113115
0.113597
0.114089
0.114589
0.115098
0.115615
0.11614
0.116673
0.117213
0.117759
0.118311
0.11887
0.119433
0.120001
0.120573
0.121148
0.121726
0.122306
0.122888
0.123471
0.124053
0.124636
0.125217
0.125796
0.126373
0.126947
0.127516
0.128081
0.128641
0.129195
0.129742
0.130282
0.130815
0.131338
0.131853
0.132359
0.132854
0.133339
0.133814
0.134276
0.134728
0.135167
0.135594
0.136008
0.136409
0.136798
0.137173
0.137535
0.137884
0.138219
0.138541
0.138849
0.139144
0.139425
0.139693
0.139948
0.14019
0.140419
0.140636
0.14084
0.141031
0.14121
0.141378
0.141534
0.141678
0.141812
0.141934
0.142046
0.142148
0.142239
0.142322
0.142394
0.142458
0.142512
0.142558
0.142596
0.142626
0.142648
0.142663
0.142671
0.142671
0.142666
0.142654
0.142635
0.142611
0.142582
0.142547
0.142507
0.142462
0.142413
0.142359
0.142301
0.142239
0.142174
0.142105
0.142032
0.141956
0.141878
0.141796
0.141712
0.141626
0.141537
0.141446
0.141352
0.141257
0.141161
0.141062
0.140963
0.140861
0.140759
0.140655
0.140551
0.140445
0.140339
0.140231
0.140124
0.140015
0.139906
0.139797
0.139687
0.139577
0.139467
0.139356
0.139246
0.139135
0.139024
0.138914
0.138803
0.138693
0.138583
0.138473
0.138363
0.138253
0.138144
0.138035
0.137927
0.137819
0.137711
0.137604
0.137497
0.137391
0.137286
0.13718
0.137076
0.136972
0.136868
0.136765
0.136663
0.136561
0.13646
0.136359
0.136259
0.13616
0.136061
0.135963
0.135865
0.135769
0.135672
0.135577
0.135482
0.135387
0.135293
0.1352
0.135108
0.135016
0.134924
0.134834
0.134743
0.134654
0.134565
0.134476
0.134389
0.134301
0.134215
0.134129
0.134043
0.133958
0.133874
0.13379
0.133706
0.133623
0.133541
0.133459
0.133378
0.133297
0.133217
0.133137
0.133057
0.132978
0.1329
0.132822
0.132744
0.132667
0.13259
0.132514
0.132438
0.132363
0.132288
0.132213
0.132139
0.132065
0.131992
0.131919
0.131846
0.131774
0.131702
0.131631
0.131559
0.131489
0.131418
0.131348
0.131278
0.131209
0.131139
0.131071
0.131002
0.130934
0.130866
0.130798
0.130731
0.130664
0.130597
0.130531
0.130465
0.130399
0.130334
0.130268
0.130203
0.130139
0.130074
0.13001
0.129946
0.129883
0.129819
0.129756
0.129694
0.129631
0.129569
0.129507
0.129445
0.129384
0.129323
0.129262
0.129201
0.129141
0.129081
0.129021
0.128961
0.128902
0.128843
0.128784
0.128726
0.128668
0.12861
0.128552
0.128495
0.128438
0.128381
0.128325
0.128269
0.128213
0.128158
0.128102
0.128048
0.127993
0.127939
0.127885
0.127832
0.127778
0.127726
0.127673
0.127621
0.127569
0.127518
0.127467
0.127417
0.127367
0.127317
0.127268
0.127219
0.127171
0.127123
0.127075
0.127028
0.126982
0.126936
0.12689
0.126846
0.126801
0.126757
0.126714
0.126671
0.126629
0.126588
0.126547
0.126507
0.126467
0.126429
0.126391
0.126353
0.126317
0.126281
0.126246
0.126211
0.126178
0.126146
0.126114
0.126083
0.126053
0.126024
0.125996
0.125969
0.125943
0.125918
0.125894
0.125872
0.12585
0.125829
0.12581
0.125792
0.125775
0.125759
0.125744
0.125731
0.125718
0.125707
0.125698
0.125689
0.125682
0.125676
0.125671
0.125667
0.125667
0.1
0.0999882
0.0999843
0.0999883
0.1
0.100019
0.100045
0.100078
0.100116
0.10016
0.100209
0.100262
0.100319
0.10038
0.100444
0.100511
0.100582
0.100655
0.100732
0.100812
0.100896
0.100983
0.101075
0.101171
0.101272
0.101379
0.101491
0.101609
0.101734
0.101865
0.102003
0.102148
0.102301
0.102461
0.102629
0.102805
0.102988
0.10318
0.103379
0.103587
0.103803
0.104027
0.104259
0.1045
0.104749
0.105007
0.105273
0.105548
0.105833
0.106126
0.106429
0.106741
0.107062
0.107394
0.107735
0.108086
0.108448
0.108819
0.109201
0.109594
0.109996
0.110409
0.110833
0.111267
0.111711
0.112165
0.112629
0.113103
0.113586
0.114079
0.114581
0.115092
0.115611
0.116138
0.116672
0.117214
0.117763
0.118318
0.118878
0.119444
0.120014
0.120589
0.121167
0.121748
0.122331
0.122915
0.123501
0.124086
0.124672
0.125256
0.125838
0.126417
0.126994
0.127566
0.128134
0.128696
0.129252
0.129802
0.130344
0.130878
0.131404
0.131921
0.132428
0.132925
0.133412
0.133887
0.134351
0.134803
0.135243
0.135671
0.136086
0.136488
0.136876
0.137252
0.137614
0.137962
0.138297
0.138619
0.138926
0.139221
0.139502
0.139769
0.140023
0.140264
0.140492
0.140707
0.14091
0.1411
0.141279
0.141445
0.141599
0.141742
0.141875
0.141996
0.142106
0.142207
0.142297
0.142377
0.142449
0.142511
0.142564
0.142608
0.142645
0.142673
0.142694
0.142707
0.142714
0.142713
0.142706
0.142692
0.142673
0.142647
0.142616
0.14258
0.142539
0.142493
0.142442
0.142387
0.142328
0.142265
0.142198
0.142127
0.142053
0.141977
0.141897
0.141814
0.141729
0.141641
0.141551
0.141458
0.141364
0.141268
0.14117
0.141071
0.14097
0.140867
0.140764
0.140659
0.140553
0.140446
0.140339
0.140231
0.140122
0.140012
0.139902
0.139792
0.139681
0.13957
0.139458
0.139347
0.139235
0.139123
0.139012
0.1389
0.138788
0.138677
0.138566
0.138455
0.138344
0.138233
0.138123
0.138013
0.137904
0.137795
0.137686
0.137578
0.13747
0.137363
0.137256
0.13715
0.137044
0.136939
0.136835
0.136731
0.136627
0.136524
0.136422
0.136321
0.13622
0.136119
0.13602
0.13592
0.135822
0.135724
0.135627
0.13553
0.135434
0.135339
0.135244
0.13515
0.135056
0.134963
0.134871
0.134779
0.134688
0.134598
0.134508
0.134418
0.13433
0.134241
0.134154
0.134067
0.13398
0.133894
0.133809
0.133724
0.13364
0.133556
0.133473
0.13339
0.133308
0.133226
0.133145
0.133064
0.132984
0.132904
0.132824
0.132746
0.132667
0.132589
0.132512
0.132435
0.132358
0.132282
0.132206
0.132131
0.132056
0.131981
0.131907
0.131833
0.131759
0.131686
0.131614
0.131541
0.131469
0.131398
0.131327
0.131256
0.131185
0.131115
0.131045
0.130975
0.130906
0.130837
0.130769
0.1307
0.130632
0.130565
0.130497
0.13043
0.130364
0.130297
0.130231
0.130165
0.130099
0.130034
0.129969
0.129904
0.12984
0.129776
0.129712
0.129648
0.129585
0.129522
0.129459
0.129396
0.129334
0.129272
0.12921
0.129149
0.129088
0.129027
0.128966
0.128906
0.128846
0.128786
0.128727
0.128667
0.128608
0.12855
0.128491
0.128433
0.128376
0.128318
0.128261
0.128204
0.128148
0.128091
0.128036
0.12798
0.127925
0.12787
0.127815
0.127761
0.127707
0.127653
0.1276
0.127547
0.127495
0.127443
0.127391
0.12734
0.127289
0.127239
0.127189
0.127139
0.12709
0.127041
0.126993
0.126945
0.126898
0.126851
0.126805
0.126759
0.126714
0.126669
0.126625
0.126581
0.126538
0.126496
0.126454
0.126413
0.126372
0.126333
0.126294
0.126255
0.126217
0.126181
0.126144
0.126109
0.126074
0.126041
0.126008
0.125976
0.125945
0.125915
0.125885
0.125857
0.12583
0.125804
0.125779
0.125754
0.125731
0.125709
0.125689
0.125669
0.12565
0.125633
0.125617
0.125602
0.125589
0.125576
0.125565
0.125555
0.125547
0.125539
0.125533
0.125528
0.125524
0.125524
0.1
0.0999883
0.0999844
0.0999884
0.1
0.100019
0.100045
0.100077
0.100116
0.100159
0.100208
0.10026
0.100317
0.100377
0.100441
0.100508
0.100578
0.100651
0.100727
0.100807
0.10089
0.100977
0.101068
0.101164
0.101264
0.10137
0.101482
0.1016
0.101724
0.101854
0.101992
0.102136
0.102288
0.102448
0.102615
0.10279
0.102973
0.103163
0.103362
0.103569
0.103784
0.104007
0.104239
0.104479
0.104728
0.104985
0.105251
0.105526
0.105809
0.106102
0.106405
0.106716
0.107038
0.107369
0.10771
0.108062
0.108423
0.108795
0.109177
0.10957
0.109974
0.110387
0.110812
0.111246
0.111692
0.112147
0.112612
0.113088
0.113573
0.114068
0.114571
0.115084
0.115605
0.116134
0.116672
0.117216
0.117767
0.118325
0.118888
0.119457
0.120031
0.120609
0.12119
0.121774
0.122361
0.122949
0.123538
0.124127
0.124715
0.125303
0.125888
0.126471
0.127051
0.127627
0.128197
0.128763
0.129322
0.129874
0.130419
0.130956
0.131485
0.132004
0.132513
0.133012
0.1335
0.133977
0.134443
0.134896
0.135337
0.135765
0.136181
0.136583
0.136972
0.137348
0.13771
0.138058
0.138393
0.138714
0.139021
0.139315
0.139595
0.139861
0.140114
0.140354
0.140581
0.140795
0.140996
0.141185
0.141362
0.141526
0.141679
0.141821
0.141951
0.142071
0.14218
0.142278
0.142367
0.142446
0.142515
0.142575
0.142627
0.142669
0.142704
0.142731
0.14275
0.142761
0.142765
0.142763
0.142754
0.142739
0.142718
0.14269
0.142658
0.14262
0.142577
0.142529
0.142477
0.14242
0.142359
0.142295
0.142226
0.142154
0.142079
0.142
0.141919
0.141835
0.141748
0.141658
0.141567
0.141473
0.141377
0.14128
0.14118
0.141079
0.140977
0.140873
0.140768
0.140662
0.140555
0.140447
0.140338
0.140228
0.140118
0.140007
0.139896
0.139784
0.139672
0.139559
0.139446
0.139333
0.139221
0.139107
0.138994
0.138881
0.138769
0.138656
0.138543
0.138431
0.138319
0.138207
0.138096
0.137984
0.137874
0.137763
0.137653
0.137544
0.137435
0.137326
0.137218
0.137111
0.137004
0.136898
0.136792
0.136687
0.136582
0.136478
0.136375
0.136272
0.136169
0.136068
0.135967
0.135867
0.135767
0.135668
0.135569
0.135471
0.135374
0.135278
0.135182
0.135086
0.134992
0.134897
0.134804
0.134711
0.134619
0.134527
0.134436
0.134345
0.134255
0.134166
0.134077
0.133989
0.133902
0.133815
0.133728
0.133642
0.133557
0.133472
0.133387
0.133304
0.13322
0.133137
0.133055
0.132973
0.132892
0.132811
0.132731
0.132651
0.132571
0.132492
0.132414
0.132336
0.132258
0.132181
0.132104
0.132028
0.131952
0.131876
0.131801
0.131726
0.131652
0.131578
0.131504
0.131431
0.131358
0.131286
0.131213
0.131142
0.13107
0.130999
0.130928
0.130858
0.130788
0.130718
0.130649
0.130579
0.130511
0.130442
0.130374
0.130306
0.130238
0.130171
0.130104
0.130038
0.129971
0.129905
0.129839
0.129774
0.129709
0.129644
0.129579
0.129515
0.129451
0.129387
0.129323
0.12926
0.129197
0.129135
0.129072
0.12901
0.128948
0.128887
0.128825
0.128765
0.128704
0.128643
0.128583
0.128524
0.128464
0.128405
0.128346
0.128287
0.128229
0.128171
0.128113
0.128056
0.127999
0.127942
0.127886
0.127829
0.127774
0.127718
0.127663
0.127608
0.127554
0.1275
0.127446
0.127393
0.12734
0.127288
0.127235
0.127184
0.127132
0.127081
0.127031
0.126981
0.126931
0.126882
0.126833
0.126785
0.126738
0.12669
0.126644
0.126597
0.126552
0.126507
0.126462
0.126418
0.126375
0.126332
0.12629
0.126248
0.126207
0.126167
0.126128
0.126089
0.126051
0.126014
0.125977
0.125942
0.125907
0.125873
0.125839
0.125807
0.125776
0.125745
0.125716
0.125687
0.125659
0.125633
0.125607
0.125583
0.12556
0.125537
0.125516
0.125496
0.125477
0.12546
0.125444
0.125429
0.125415
0.125402
0.125391
0.125381
0.125372
0.125365
0.125358
0.125353
0.125349
0.125349
0.1
0.0999884
0.0999846
0.0999886
0.1
0.100019
0.100045
0.100077
0.100115
0.100158
0.100206
0.100258
0.100315
0.100374
0.100438
0.100504
0.100573
0.100646
0.100721
0.1008
0.100883
0.100969
0.10106
0.101155
0.101255
0.10136
0.101471
0.101588
0.101711
0.101841
0.101978
0.102122
0.102273
0.102432
0.102598
0.102772
0.102954
0.103144
0.103342
0.103548
0.103762
0.103985
0.104215
0.104455
0.104702
0.104959
0.105224
0.105498
0.105782
0.106074
0.106376
0.106687
0.107009
0.10734
0.107681
0.108032
0.108394
0.108766
0.109149
0.109542
0.109946
0.110361
0.110786
0.111222
0.111668
0.112125
0.112592
0.11307
0.113557
0.114053
0.114559
0.115074
0.115598
0.11613
0.11667
0.117218
0.117772
0.118333
0.1189
0.119473
0.12005
0.120632
0.121217
0.121805
0.122396
0.122988
0.123581
0.124174
0.124767
0.125359
0.125948
0.126535
0.127119
0.127699
0.128273
0.128842
0.129405
0.129961
0.130509
0.131049
0.13158
0.132102
0.132614
0.133115
0.133605
0.134084
0.134551
0.135006
0.135448
0.135877
0.136294
0.136697
0.137086
0.137462
0.137824
0.138172
0.138506
0.138827
0.139133
0.139426
0.139705
0.13997
0.140222
0.140461
0.140686
0.140898
0.141098
0.141285
0.14146
0.141623
0.141774
0.141913
0.142042
0.142159
0.142266
0.142363
0.142449
0.142526
0.142593
0.142651
0.1427
0.142741
0.142773
0.142798
0.142814
0.142824
0.142826
0.142822
0.142811
0.142793