# vtk DataFile Version 3.0
LBM Fluid Grid
ASCII
DATASET STRUCTURED_POINTS
DIMENSIONS 400 150 1
ORIGIN 0 0 0
SPACING 1 1 1
POINT_DATA 60000
SCALARS VelocityMagnitude double 1
LOOKUP_TABLE default
0.1
0.0999894
0.0999874
0.0999938
0.100008
0.10003
0.10006
0.100095
0.100137
0.100183
0.100234
0.100289
0.100348
0.10041
0.100475
0.100543
0.100614
0.100688
0.100764
0.100844
0.100927
0.101015
0.101106
0.101202
0.101304
0.10141
0.101523
0.101642
0.101767
0.1019
0.102039
0.102186
0.10234
0.102502
0.102672
0.102849
0.103035
0.103228
0.103429
0.103639
0.103856
0.104081
0.104315
0.104557
0.104807
0.105066
0.105333
0.105609
0.105893
0.106187
0.10649
0.106801
0.107123
0.107454
0.107794
0.108145
0.108505
0.108875
0.109256
0.109646
0.110047
0.110458
0.110879
0.111311
0.111752
0.112203
0.112663
0.113134
0.113613
0.114101
0.114599
0.115104
0.115618
0.116139
0.116668
0.117204
0.117746
0.118294
0.118847
0.119406
0.119969
0.120535
0.121105
0.121678
0.122253
0.12283
0.123407
0.123984
0.124561
0.125137
0.125711
0.126283
0.126851
0.127416
0.127976
0.128532
0.129081
0.129624
0.13016
0.130689
0.131209
0.131721
0.132223
0.132716
0.133198
0.13367
0.134131
0.134581
0.135018
0.135444
0.135857
0.136258
0.136646
0.137021
0.137383
0.137732
0.138068
0.13839
0.138699
0.138995
0.139278
0.139547
0.139804
0.140048
0.140279
0.140497
0.140703
0.140896
0.141078
0.141248
0.141406
0.141553
0.141689
0.141814
0.141929
0.142033
0.142128
0.142212
0.142288
0.142354
0.142411
0.14246
0.142501
0.142533
0.142558
0.142576
0.142586
0.142589
0.142586
0.142577
0.142561
0.14254
0.142513
0.142481
0.142443
0.142401
0.142354
0.142303
0.142247
0.142188
0.142124
0.142058
0.141987
0.141914
0.141837
0.141758
0.141676
0.141592
0.141505
0.141416
0.141325
0.141232
0.141138
0.141041
0.140944
0.140845
0.140744
0.140643
0.14054
0.140436
0.140332
0.140227
0.140121
0.140014
0.139907
0.1398
0.139692
0.139584
0.139475
0.139367
0.139258
0.139149
0.13904
0.138931
0.138823
0.138714
0.138606
0.138498
0.13839
0.138282
0.138175
0.138068
0.137961
0.137855
0.137749
0.137643
0.137538
0.137434
0.13733
0.137227
0.137124
0.137021
0.136919
0.136818
0.136718
0.136617
0.136518
0.136419
0.136321
0.136223
0.136126
0.13603
0.135934
0.135839
0.135744
0.13565
0.135557
0.135464
0.135372
0.13528
0.135189
0.135099
0.135009
0.13492
0.134831
0.134744
0.134656
0.134569
0.134483
0.134398
0.134312
0.134228
0.134144
0.134061
0.133978
0.133895
0.133813
0.133732
0.133651
0.133571
0.133491
0.133412
0.133333
0.133255
0.133177
0.133099
0.133023
0.132946
0.13287
0.132794
0.132719
0.132644
0.13257
0.132496
0.132422
0.132349
0.132277
0.132204
0.132132
0.132061
0.131989
0.131918
0.131848
0.131778
0.131708
0.131638
0.131569
0.1315
0.131432
0.131364
0.131296
0.131228
0.131161
0.131094
0.131028
0.130961
0.130895
0.13083
0.130764
0.130699
0.130634
0.13057
0.130505
0.130441
0.130377
0.130314
0.130251
0.130188
0.130125
0.130063
0.13
0.129939
0.129877
0.129816
0.129754
0.129694
0.129633
0.129573
0.129512
0.129453
0.129393
0.129334
0.129275
0.129216
0.129157
0.129099
0.129041
0.128983
0.128926
0.128869
0.128812
0.128755
0.128699
0.128643
0.128587
0.128532
0.128477
0.128422
0.128367
0.128313
0.128259
0.128205
0.128152
0.128099
0.128046
0.127994
0.127942
0.12789
0.127839
0.127788
0.127738
0.127688
0.127638
0.127589
0.12754
0.127491
0.127443
0.127396
0.127348
0.127302
0.127256
0.12721
0.127165
0.12712
0.127076
0.127032
0.126989
0.126946
0.126904
0.126863
0.126822
0.126782
0.126743
0.126704
0.126666
0.126628
0.126591
0.126556
0.12652
0.126486
0.126452
0.126419
0.126387
0.126356
0.126326
0.126297
0.126269
0.126241
0.126215
0.126189
0.126165
0.126142
0.126119
0.126098
0.126078
0.126059
0.126041
0.126024
0.126009
0.125995
0.125981
0.12597
0.125959
0.125949
0.125941
0.125934
0.125928
0.125923
0.125919
0.125919
0.1
0.0999894
0.0999874
0.0999938
0.100008
0.10003
0.10006
0.100095
0.100136
0.100183
0.100234
0.100289
0.100348
0.10041
0.100475
0.100543
0.100614
0.100687
0.100764
0.100844
0.100927
0.101014
0.101106
0.101202
0.101303
0.10141
0.101522
0.101641
0.101766
0.101899
0.102038
0.102185
0.102339
0.102501
0.10267
0.102848
0.103033
0.103226
0.103428
0.103637
0.103854
0.10408
0.104313
0.104555
0.104805
0.105064
0.105331
0.105607
0.105891
0.106185
0.106487
0.106799
0.107121
0.107451
0.107792
0.108142
0.108503
0.108873
0.109254
0.109644
0.110045
0.110456
0.110878
0.111309
0.11175
0.112201
0.112662
0.113132
0.113612
0.1141
0.114598
0.115104
0.115617
0.116139
0.116668
0.117204
0.117746
0.118294
0.118848
0.119407
0.11997
0.120537
0.121108
0.121681
0.122256
0.122833
0.12341
0.123988
0.124565
0.125141
0.125716
0.126288
0.126857
0.127422
0.127982
0.128538
0.129087
0.129631
0.130167
0.130696
0.131216
0.131728
0.132231
0.132724
0.133206
0.133678
0.134139
0.134589
0.135027
0.135452
0.135866
0.136267
0.136655
0.13703
0.137392
0.137741
0.138077
0.138399
0.138708
0.139004
0.139286
0.139556
0.139812
0.140056
0.140287
0.140505
0.140711
0.140904
0.141086
0.141255
0.141413
0.14156
0.141696
0.141821
0.141935
0.14204
0.142134
0.142219
0.142294
0.14236
0.142417
0.142466
0.142506
0.142539
0.142563
0.142581
0.142591
0.142594
0.142591
0.142581
0.142566
0.142544
0.142517
0.142484
0.142447
0.142404
0.142357
0.142306
0.14225
0.142191
0.142127
0.14206
0.14199
0.141916
0.14184
0.14176
0.141678
0.141594
0.141507
0.141418
0.141327
0.141234
0.141139
0.141043
0.140945
0.140845
0.140745
0.140643
0.14054
0.140437
0.140332
0.140227
0.140121
0.140014
0.139907
0.139799
0.139691
0.139583
0.139474
0.139366
0.139257
0.139148
0.139039
0.13893
0.138821
0.138713
0.138604
0.138496
0.138388
0.13828
0.138173
0.138065
0.137959
0.137852
0.137746
0.137641
0.137536
0.137431
0.137327
0.137223
0.13712
0.137018
0.136916
0.136815
0.136714
0.136614
0.136514
0.136415
0.136317
0.136219
0.136122
0.136025
0.135929
0.135834
0.135739
0.135645
0.135552
0.135459
0.135366
0.135275
0.135184
0.135093
0.135004
0.134914
0.134826
0.134738
0.13465
0.134563
0.134477
0.134391
0.134306
0.134221
0.134137
0.134054
0.133971
0.133888
0.133806
0.133725
0.133644
0.133564
0.133484
0.133404
0.133325
0.133247
0.133169
0.133092
0.133014
0.132938
0.132862
0.132786
0.132711
0.132636
0.132561
0.132487
0.132414
0.13234
0.132268
0.132195
0.132123
0.132051
0.13198
0.131909
0.131838
0.131768
0.131698
0.131629
0.131559
0.131491
0.131422
0.131354
0.131286
0.131218
0.131151
0.131084
0.131017
0.130951
0.130885
0.130819
0.130753
0.130688
0.130623
0.130558
0.130494
0.13043
0.130366
0.130303
0.130239
0.130176
0.130113
0.130051
0.129989
0.129927
0.129865
0.129804
0.129742
0.129681
0.129621
0.12956
0.1295
0.12944
0.129381
0.129321
0.129262
0.129203
0.129145
0.129087
0.129028
0.128971
0.128913
0.128856
0.128799
0.128742
0.128686
0.12863
0.128574
0.128518
0.128463
0.128408
0.128354
0.128299
0.128245
0.128192
0.128138
0.128085
0.128033
0.12798
0.127928
0.127877
0.127825
0.127774
0.127724
0.127674
0.127624
0.127575
0.127526
0.127477
0.127429
0.127381
0.127334
0.127287
0.127241
0.127195
0.12715
0.127105
0.127061
0.127017
0.126974
0.126932
0.12689
0.126848
0.126807
0.126767
0.126728
0.126689
0.126651
0.126613
0.126576
0.12654
0.126505
0.126471
0.126437
0.126404
0.126372
0.126341
0.126311
0.126282
0.126253
0.126226
0.126199
0.126174
0.126149
0.126126
0.126104
0.126082
0.126062
0.126043
0.126025
0.126009
0.125993
0.125979
0.125966
0.125954
0.125943
0.125934
0.125925
0.125918
0.125912
0.125907
0.125903
0.125903
0.1
0.0999894
0.0999874
0.0999938
0.100008
0.10003
0.100059
0.100095
0.100136
0.100183
0.100234
0.100289
0.100347
0.100409
0.100474
0.100542
0.100613
0.100686
0.100762
0.100842
0.100925
0.101012
0.101104
0.1012
0.101301
0.101407
0.10152
0.101638
0.101764
0.101896
0.102035
0.102181
0.102336
0.102497
0.102667
0.102844
0.103029
0.103222
0.103423
0.103632
0.103849
0.104074
0.104308
0.10455
0.1048
0.105058
0.105325
0.105601
0.105885
0.106178
0.106481
0.106793
0.107114
0.107445
0.107785
0.108136
0.108496
0.108867
0.109247
0.109638
0.110039
0.110451
0.110872
0.111303
0.111745
0.112196
0.112658
0.113128
0.113608
0.114097
0.114595
0.115102
0.115616
0.116138
0.116668
0.117204
0.117747
0.118297
0.118851
0.119411
0.119975
0.120543
0.121114
0.121688
0.122264
0.122842
0.12342
0.123999
0.124577
0.125154
0.12573
0.126303
0.126872
0.127438
0.128
0.128556
0.129106
0.12965
0.130187
0.130717
0.131238
0.131751
0.132254
0.132747
0.13323
0.133703
0.134164
0.134614
0.135052
0.135478
0.135892
0.136293
0.136681
0.137056
0.137418
0.137767
0.138103
0.138425
0.138734
0.139029
0.139312
0.139581
0.139837
0.14008
0.140311
0.140529
0.140734
0.140927
0.141108
0.141278
0.141435
0.141582
0.141717
0.141842
0.141956
0.142059
0.142153
0.142237
0.142312
0.142378
0.142434
0.142483
0.142523
0.142555
0.142579
0.142596
0.142605
0.142608
0.142605
0.142594
0.142578
0.142556
0.142529
0.142496
0.142458
0.142415
0.142367
0.142316
0.142259
0.142199
0.142136
0.142068
0.141997
0.141924
0.141847
0.141767
0.141684
0.141599
0.141512
0.141423
0.141331
0.141238
0.141143
0.141046
0.140948
0.140848
0.140747
0.140645
0.140542
0.140438
0.140333
0.140227
0.140121
0.140014
0.139906
0.139798
0.13969
0.139581
0.139472
0.139363
0.139254
0.139145
0.139036
0.138926
0.138817
0.138708
0.138599
0.138491
0.138382
0.138274
0.138166
0.138059
0.137952
0.137845
0.137739
0.137633
0.137527
0.137423
0.137318
0.137214
0.137111
0.137008
0.136906
0.136804
0.136703
0.136602
0.136503
0.136403
0.136304
0.136206
0.136109
0.136012
0.135916
0.13582
0.135725
0.135631
0.135537
0.135444
0.135351
0.135259
0.135168
0.135077
0.134987
0.134897
0.134808
0.13472
0.134632
0.134545
0.134458
0.134372
0.134287
0.134202
0.134117
0.134033
0.13395
0.133867
0.133785
0.133703
0.133622
0.133542
0.133461
0.133382
0.133302
0.133224
0.133145
0.133068
0.13299
0.132913
0.132837
0.132761
0.132685
0.13261
0.132535
0.132461
0.132387
0.132314
0.132241
0.132168
0.132095
0.132023
0.131952
0.131881
0.13181
0.131739
0.131669
0.131599
0.13153
0.131461
0.131392
0.131323
0.131255
0.131187
0.13112
0.131052
0.130985
0.130919
0.130852
0.130786
0.130721
0.130655
0.13059
0.130525
0.130461
0.130396
0.130332
0.130268
0.130205
0.130142
0.130079
0.130016
0.129953
0.129891
0.129829
0.129768
0.129706
0.129645
0.129584
0.129524
0.129463
0.129403
0.129344
0.129284
0.129225
0.129166
0.129107
0.129048
0.12899
0.128932
0.128875
0.128817
0.12876
0.128703
0.128647
0.12859
0.128534
0.128479
0.128423
0.128368
0.128313
0.128259
0.128205
0.128151
0.128098
0.128044
0.127992
0.127939
0.127887
0.127835
0.127784
0.127733
0.127682
0.127632
0.127582
0.127532
0.127483
0.127435
0.127386
0.127339
0.127291
0.127244
0.127198
0.127152
0.127107
0.127062
0.127017
0.126974
0.12693
0.126888
0.126845
0.126804
0.126763
0.126723
0.126683
0.126644
0.126606
0.126568
0.126531
0.126495
0.12646
0.126425
0.126392
0.126359
0.126327
0.126295
0.126265
0.126236
0.126207
0.12618
0.126153
0.126128
0.126103
0.12608
0.126057
0.126036
0.126016
0.125996
0.125979
0.125962
0.125946
0.125932
0.125919
0.125907
0.125896
0.125886
0.125878
0.125871
0.125865
0.12586
0.125856
0.125856
0.1
0.0999895
0.0999875
0.0999939
0.100008
0.10003
0.100059
0.100095
0.100136
0.100182
0.100233
0.100288
0.100346
0.100408
0.100473
0.10054
0.100611
0.100684
0.10076
0.10084
0.100922
0.101009
0.1011
0.101196
0.101297
0.101403
0.101516
0.101634
0.101759
0.101891
0.10203
0.102176
0.10233
0.102491
0.10266
0.102837
0.103022
0.103215
0.103415
0.103624
0.103841
0.104066
0.104299
0.10454
0.10479
0.105048
0.105315
0.10559
0.105875
0.106168
0.10647
0.106782
0.107103
0.107434
0.107774
0.108125
0.108485
0.108856
0.109237
0.109628
0.110029
0.110441
0.110863
0.111295
0.111737
0.112189
0.11265
0.113122
0.113603
0.114092
0.114591
0.115098
0.115614
0.116137
0.116668
0.117206
0.11775
0.1183
0.118856
0.119417
0.119982
0.120552
0.121125
0.1217
0.122278
0.122857
0.123437
0.124017
0.124597
0.125176
0.125753
0.126327
0.126898
0.127466
0.128029
0.128586
0.129138
0.129683
0.130222
0.130752
0.131275
0.131788
0.132292
0.132787
0.13327
0.133744
0.134206
0.134656
0.135095
0.135521
0.135935
0.136336
0.136724
0.1371
0.137462
0.137811
0.138146
0.138468
0.138777
0.139072
0.139354
0.139623
0.139879
0.140122
0.140351
0.140569
0.140773
0.140966
0.141146
0.141315
0.141472
0.141618
0.141752
0.141876
0.141989
0.142092
0.142185
0.142269
0.142343
0.142407
0.142463
0.142511
0.14255
0.142581
0.142605
0.142621
0.14263
0.142632
0.142627
0.142616
0.142599
0.142577
0.142548
0.142515
0.142476
0.142432
0.142384
0.142332
0.142275
0.142214
0.14215
0.142081
0.14201
0.141935
0.141858
0.141777
0.141694
0.141609
0.141521
0.141431
0.141338
0.141244
0.141149
0.141051
0.140952
0.140852
0.140751
0.140648
0.140544
0.14044
0.140334
0.140228
0.140121
0.140013
0.139905
0.139796
0.139688
0.139578
0.139469
0.139359
0.139249
0.13914
0.13903
0.13892
0.13881
0.138701
0.138591
0.138482
0.138373
0.138264
0.138156
0.138048
0.13794
0.137833
0.137726
0.137619
0.137514
0.137408
0.137303
0.137199
0.137095
0.136991
0.136888
0.136786
0.136685
0.136583
0.136483
0.136383
0.136284
0.136185
0.136087
0.13599
0.135893
0.135797
0.135701
0.135606
0.135512
0.135418
0.135325
0.135232
0.13514
0.135049
0.134958
0.134868
0.134779
0.13469
0.134601
0.134514
0.134427
0.13434
0.134254
0.134169
0.134084
0.133999
0.133915
0.133832
0.133749
0.133667
0.133585
0.133504
0.133424
0.133343
0.133264
0.133184
0.133106
0.133027
0.13295
0.132872
0.132795
0.132719
0.132643
0.132567
0.132492
0.132417
0.132343
0.132269
0.132195
0.132122
0.132049
0.131977
0.131905
0.131833
0.131762
0.131691
0.13162
0.13155
0.13148
0.13141
0.131341
0.131272
0.131204
0.131135
0.131067
0.131
0.130932
0.130865
0.130799
0.130732
0.130666
0.1306
0.130535
0.130469
0.130404
0.13034
0.130275
0.130211
0.130147
0.130084
0.13002
0.129957
0.129895
0.129832
0.12977
0.129708
0.129646
0.129585
0.129523
0.129462
0.129402
0.129341
0.129281
0.129221
0.129162
0.129103
0.129043
0.128985
0.128926
0.128868
0.12881
0.128752
0.128695
0.128638
0.128581
0.128524
0.128468
0.128412
0.128357
0.128301
0.128246
0.128192
0.128137
0.128083
0.128029
0.127976
0.127923
0.12787
0.127818
0.127766
0.127714
0.127663
0.127612
0.127561
0.127511
0.127462
0.127412
0.127363
0.127315
0.127267
0.12722
0.127172
0.127126
0.12708
0.127034
0.126989
0.126945
0.126901
0.126857
0.126814
0.126772
0.12673
0.126689
0.126649
0.126609
0.12657
0.126531
0.126493
0.126456
0.12642
0.126385
0.12635
0.126316
0.126283
0.12625
0.126219
0.126189
0.126159
0.12613
0.126103
0.126076
0.12605
0.126026
0.126002
0.125979
0.125958
0.125938
0.125918
0.1259
0.125883
0.125868
0.125853
0.12584
0.125828
0.125817
0.125807
0.125799
0.125792
0.125786
0.125781
0.125776
0.125776
0.1
0.0999896
0.0999876
0.0999939
0.100008
0.10003
0.100059
0.100094
0.100135
0.100181
0.100232
0.100287
0.100345
0.100406
0.100471
0.100538
0.100608
0.100681
0.100757
0.100836
0.100919
0.101005
0.101096
0.101191
0.101292
0.101398
0.10151
0.101628
0.101752
0.101884
0.102022
0.102168
0.102321
0.102482
0.102651
0.102828
0.103012
0.103204
0.103404
0.103613
0.103829
0.104054
0.104286
0.104527
0.104777
0.105034
0.105301
0.105576
0.10586
0.106153
0.106455
0.106767
0.107088
0.107418
0.107759
0.10811
0.10847
0.108841
0.109222
0.109613
0.110015
0.110427
0.110849
0.111282
0.111725
0.112178
0.11264
0.113113
0.113594
0.114085
0.114585
0.115094
0.115611
0.116135
0.116668
0.117207
0.117753
0.118305
0.118863
0.119426
0.119993
0.120565
0.121139
0.121717
0.122297
0.122878
0.123461
0.124043
0.124625
0.125206
0.125785
0.126362
0.126935
0.127504
0.128069
0.128629
0.129183
0.12973
0.13027
0.130802
0.131326
0.131841
0.132346
0.132842
0.133327
0.133801
0.134264
0.134715
0.135154
0.135581
0.135995
0.136397
0.136786
0.137161
0.137523
0.137872
0.138207
0.138529
0.138837
0.139132
0.139414
0.139682
0.139937
0.140179
0.140408
0.140625
0.140829
0.14102
0.1412
0.141367
0.141523
0.141668
0.141802
0.141924
0.142036
0.142138
0.14223
0.142313
0.142385
0.142449
0.142504
0.14255
0.142588
0.142618
0.142641
0.142656
0.142663
0.142664
0.142659
0.142647
0.142629
0.142605
0.142576
0.142541
0.142501
0.142456
0.142407
0.142354
0.142296
0.142234
0.142169
0.1421
0.142027
0.141952
0.141873
0.141792
0.141708
0.141621
0.141532
0.141441
0.141348
0.141253
0.141157
0.141058
0.140959
0.140858
0.140755
0.140652
0.140547
0.140441
0.140335
0.140228
0.14012
0.140012
0.139903
0.139793
0.139684
0.139573
0.139463
0.139353
0.139242
0.139131
0.139021
0.13891
0.1388
0.138689
0.138579
0.138469
0.138359
0.13825
0.13814
0.138031
0.137923
0.137815
0.137707
0.1376
0.137493
0.137387
0.137281
0.137176
0.137071
0.136967
0.136863
0.13676
0.136658
0.136556
0.136455
0.136354
0.136254
0.136155
0.136056
0.135958
0.13586
0.135763
0.135667
0.135571
0.135476
0.135381
0.135287
0.135194
0.135101
0.135009
0.134918
0.134827
0.134737
0.134647
0.134558
0.13447
0.134382
0.134294
0.134208
0.134121
0.134036
0.133951
0.133866
0.133782
0.133699
0.133616
0.133533
0.133451
0.13337
0.133289
0.133209
0.133129
0.133049
0.13297
0.132892
0.132814
0.132736
0.132659
0.132582
0.132506
0.13243
0.132355
0.13228
0.132205
0.132131
0.132057
0.131984
0.131911
0.131838
0.131766
0.131694
0.131622
0.131551
0.13148
0.13141
0.131339
0.13127
0.1312
0.131131
0.131062
0.130994
0.130925
0.130858
0.13079
0.130723
0.130656
0.130589
0.130523
0.130457
0.130391
0.130325
0.13026
0.130195
0.130131
0.130066
0.130002
0.129938
0.129875
0.129812
0.129749
0.129686
0.129623
0.129561
0.129499
0.129438
0.129376
0.129315
0.129254
0.129194
0.129134
0.129074
0.129014
0.128954
0.128895
0.128836
0.128778
0.128719
0.128661
0.128603
0.128546
0.128489
0.128432
0.128375
0.128319
0.128263
0.128207
0.128152
0.128097
0.128042
0.127988
0.127934
0.12788
0.127826
0.127773
0.127721
0.127668
0.127616
0.127565
0.127514
0.127463
0.127412
0.127362
0.127313
0.127264
0.127215
0.127167
0.127119
0.127072
0.127025
0.126978
0.126932
0.126887
0.126842
0.126798
0.126754
0.126711
0.126669
0.126627
0.126585
0.126544
0.126504
0.126465
0.126426
0.126388
0.126351
0.126315
0.126279
0.126244
0.12621
0.126176
0.126144
0.126112
0.126081
0.126052
0.126023
0.125995
0.125968
0.125942
0.125917
0.125893
0.12587
0.125849
0.125828
0.125809
0.125791
0.125774
0.125758
0.125743
0.12573
0.125717
0.125706
0.125697
0.125688
0.125681
0.125675
0.12567
0.125666
0.125666
0.1
0.0999896
0.0999877
0.099994
0.100008
0.10003
0.100059
0.100094
0.100135
0.10018
0.100231
0.100285
0.100343
0.100404
0.100468
0.100535
0.100605
0.100677
0.100753
0.100831
0.100914
0.101
0.10109
0.101185
0.101285
0.101391
0.101502
0.10162
0.101744
0.101875
0.102013
0.102158
0.102311
0.102471
0.102639
0.102815
0.102999
0.103191
0.10339
0.103598
0.103814
0.104038
0.10427
0.10451
0.104759
0.105017
0.105283
0.105557
0.105841
0.106134
0.106436
0.106747
0.107068
0.107398
0.107739
0.10809
0.10845
0.108821
0.109203
0.109594
0.109997
0.110409
0.110832
0.111266
0.111709
0.112163
0.112627
0.1131
0.113584
0.114076
0.114578
0.115088
0.115606
0.116133
0.116667
0.117209
0.117757
0.118311
0.118871
0.119437
0.120007
0.120581
0.121158
0.121739
0.122321
0.122906
0.123491
0.124076
0.124661
0.125245
0.125827
0.126406
0.126982
0.127554
0.128122
0.128684
0.12924
0.129789
0.130332
0.130866
0.131392
0.131908
0.132416
0.132913
0.133399
0.133875
0.134339
0.134791
0.135231
0.135658
0.136073
0.136475
0.136864
0.13724
0.137602
0.13795
0.138285
0.138607
0.138915
0.139209
0.13949
0.139757
0.140012
0.140253
0.140481
0.140696
0.140899
0.14109
0.141268
0.141434
0.141589
0.141733
0.141865
0.141986
0.142097
0.142197
0.142288
0.142369
0.14244
0.142502
0.142556
0.1426
0.142637
0.142666
0.142687
0.1427
0.142706
0.142706
0.142699
0.142686
0.142666
0.142641
0.14261
0.142574
0.142533
0.142487
0.142437
0.142382
0.142323
0.142259
0.142193
0.142122
0.142049
0.141972
0.141892
0.141809
0.141724
0.141637
0.141546
0.141454
0.14136
0.141264
0.141166
0.141067
0.140966
0.140864
0.14076
0.140655
0.14055
0.140443
0.140335
0.140227
0.140118
0.140009
0.139899
0.139788
0.139677
0.139566
0.139455
0.139343
0.139232
0.13912
0.139008
0.138897
0.138785
0.138673
0.138562
0.138451
0.13834
0.13823
0.138119
0.138009
0.1379
0.137791
0.137682
0.137574
0.137466
0.137359
0.137252
0.137146
0.13704
0.136935
0.13683
0.136726
0.136623
0.13652
0.136417
0.136316
0.136215
0.136114
0.136014
0.135915
0.135816
0.135718
0.135621
0.135524
0.135428
0.135333
0.135238
0.135144
0.13505
0.134957
0.134865
0.134773
0.134682
0.134591
0.134501
0.134412
0.134323
0.134234
0.134147
0.13406
0.133973
0.133887
0.133802
0.133717
0.133632
0.133548
0.133465
0.133382
0.1333
0.133218
0.133137
0.133056
0.132976
0.132896
0.132817
0.132738
0.132659
0.132581
0.132504
0.132427
0.13235
0.132274
0.132198
0.132122
0.132047
0.131973
0.131899
0.131825
0.131751
0.131678
0.131605
0.131533
0.131461
0.13139
0.131318
0.131247
0.131177
0.131107
0.131037
0.130967
0.130898
0.130829
0.13076
0.130692
0.130624
0.130557
0.130489
0.130422
0.130355
0.130289
0.130223
0.130157
0.130091
0.130026
0.129961
0.129896
0.129832
0.129768
0.129704
0.12964
0.129577
0.129514
0.129451
0.129389
0.129327
0.129265
0.129203
0.129142
0.129081
0.12902
0.128959
0.128899
0.128839
0.128779
0.12872
0.128661
0.128602
0.128543
0.128485
0.128427
0.12837
0.128312
0.128255
0.128198
0.128142
0.128086
0.12803
0.127974
0.127919
0.127864
0.12781
0.127756
0.127702
0.127649
0.127595
0.127543
0.12749
0.127438
0.127387
0.127336
0.127285
0.127234
0.127185
0.127135
0.127086
0.127037
0.126989
0.126941
0.126894
0.126847
0.126801
0.126756
0.12671
0.126666
0.126622
0.126578
0.126535
0.126493
0.126451
0.12641
0.12637
0.12633
0.126291
0.126253
0.126215
0.126178
0.126142
0.126107
0.126073
0.126039
0.126006
0.125974
0.125943
0.125913
0.125884
0.125856
0.125829
0.125802
0.125777
0.125753
0.12573
0.125708
0.125688
0.125668
0.125649
0.125632
0.125616
0.125601
0.125588
0.125575
0.125564
0.125554
0.125546
0.125538
0.125532
0.125527
0.125523
0.125523
0.1
0.0999897
0.0999878
0.0999942
0.100008
0.10003
0.100059
0.100093
0.100134
0.100179
0.100229
0.100283
0.100341
0.100401
0.100465
0.100531
0.100601
0.100673
0.100748
0.100826
0.100908
0.100993
0.101083
0.101178
0.101277
0.101382
0.101493
0.10161
0.101733
0.101864
0.102001
0.102146
0.102298
0.102458
0.102625
0.1028
0.102983
0.103174
0.103373
0.10358
0.103795
0.104019
0.10425
0.10449
0.104738
0.104995
0.10526
0.105534
0.105818
0.10611
0.106411
0.106723
0.107043
0.107374
0.107714
0.108065
0.108426
0.108797
0.109179
0.109571
0.109974
0.110387
0.110811
0.111245
0.11169
0.112145
0.11261
0.113085
0.11357
0.114064
0.114568
0.11508
0.115601
0.11613
0.116666
0.117211
0.117761
0.118319
0.118882
0.11945
0.120023
0.120601
0.121182
0.121765
0.122351
0.122939
0.123528
0.124117
0.124705
0.125292
0.125877
0.12646
0.12704
0.127615
0.128186
0.128751
0.12931
0.129862
0.130407
0.130944
0.131472
0.131991
0.132501
0.133
0.133488
0.133965
0.13443
0.134884
0.135325
0.135753
0.136169
0.136571
0.13696
0.137336
0.137698
0.138047
0.138381
0.138702
0.13901
0.139303
0.139583
0.13985
0.140103
0.140343
0.14057
0.140784
0.140986
0.141175
0.141351
0.141516
0.141669
0.141811
0.141942
0.142061
0.14217
0.142269
0.142358
0.142437
0.142506
0.142567
0.142618
0.142662
0.142696
0.142723
0.142742
0.142754
0.142759
0.142756
0.142748
0.142732
0.142711
0.142684
0.142652
0.142614
0.142571
0.142524
0.142472
0.142415
0.142354
0.14229
0.142221
0.142149
0.142074
0.141996
0.141914
0.14183
0.141744
0.141654
0.141563
0.141469
0.141373
0.141276
0.141177
0.141076
0.140973
0.14087
0.140765
0.140659
0.140552
0.140444
0.140335
0.140225
0.140115
0.140004
0.139892
0.139781
0.139668
0.139556
0.139443
0.13933
0.139217
0.139104
0.138991
0.138878
0.138765
0.138653
0.13854
0.138428
0.138315
0.138204
0.138092
0.137981
0.13787
0.13776
0.13765
0.13754
0.137431
0.137322
0.137214
0.137107
0.137
0.136893
0.136787
0.136682
0.136577
0.136473
0.13637
0.136267
0.136165
0.136063
0.135962
0.135861
0.135761
0.135662
0.135564
0.135466
0.135368
0.135272
0.135176
0.13508
0.134985
0.134891
0.134798
0.134705
0.134612
0.134521
0.134429
0.134339
0.134249
0.134159
0.134071
0.133982
0.133895
0.133807
0.133721
0.133635
0.133549
0.133464
0.13338
0.133296
0.133213
0.13313
0.133048
0.132966
0.132884
0.132803
0.132723
0.132643
0.132564
0.132485
0.132406
0.132328
0.13225
0.132173
0.132096
0.13202
0.131944
0.131868
0.131793
0.131718
0.131644
0.13157
0.131496
0.131423
0.13135
0.131277
0.131205
0.131133
0.131062
0.130991
0.13092
0.13085
0.13078
0.13071
0.13064
0.130571
0.130503
0.130434
0.130366
0.130298
0.13023
0.130163
0.130096
0.13003
0.129963
0.129897
0.129832
0.129766
0.129701
0.129636
0.129571
0.129507
0.129443
0.129379
0.129316
0.129253
0.12919
0.129127
0.129065
0.129003
0.128941
0.12888
0.128819
0.128758
0.128697
0.128637
0.128577
0.128517
0.128458
0.128399
0.12834
0.128281
0.128223
0.128165
0.128107
0.12805
0.127993
0.127936
0.12788
0.127824
0.127768
0.127713
0.127658
0.127603
0.127549
0.127495
0.127442
0.127388
0.127336
0.127283
0.127231
0.127179
0.127128
0.127077
0.127027
0.126977
0.126928
0.126878
0.12683
0.126782
0.126734
0.126687
0.12664
0.126594
0.126549
0.126504
0.126459
0.126415
0.126372
0.126329
0.126287
0.126246
0.126205
0.126165
0.126126
0.126087
0.126049
0.126012
0.125975
0.12594
0.125905
0.125871
0.125838
0.125805
0.125774
0.125744
0.125714
0.125686
0.125658
0.125632
0.125606
0.125582
0.125558
0.125536
0.125515
0.125495
0.125477
0.125459
0.125443
0.125428
0.125414
0.125401
0.12539
0.12538
0.125371
0.125364
0.125357
0.125352
0.125348
0.125348
0.1
0.0999899
0.099988
0.0999943
0.100008
0.10003
0.100058
0.100093
0.100133
0.100178
0.100228
0.100281
0.100338
0.100398
0.100461
0.100527
0.100596
0.100667
0.100742
0.100819
0.100901
0.100986
0.101075
0.101169
0.101268
0.101372
0.101482
0.101598
0.101721
0.101851
0.101987
0.102131
0.102283
0.102441
0.102608
0.102782
0.102965
0.103155
0.103353
0.103559
0.103773
0.103996
0.104226
0.104465
0.104713
0.104969
0.105234
0.105507
0.10579
0.106082
0.106383
0.106694
0.107014
0.107344
0.107685
0.108036
0.108397
0.108768
0.109151
0.109543
0.109947
0.110361
0.110786
0.111221
0.111667
0.112124
0.11259
0.113067
0.113554
0.11405
0.114556
0.11507
0.115594
0.116126
0.116665
0.117212
0.117766
0.118327
0.118894
0.119466
0.120043
0.120624
0.121209
0.121796
0.122387
0.122978
0.123571
0.124164
0.124757
0.125348
0.125938
0.126524
0.127108
0.127687
0.128261
0.12883
0.129393
0.129949
0.130497
0.131037
0.131568
0.13209
0.132601
0.133103
0.133593
0.134072
0.134539
0.134994
0.135436
0.135865
0.136282
0.136685
0.137074
0.13745
0.137812
0.13816
0.138495
0.138815
0.139122
0.139415
0.139694
0.139959
0.140211
0.14045
0.140675
0.140888
0.141088
0.141275
0.14145
0.141613
0.141764
0.141904
0.142032
0.14215
0.142257
0.142354
0.14244
0.142517
0.142585
0.142643
0.142692
0.142733
0.142766
0.14279
0.142807
0.142817
0.142819
0.142815
0.142804
0.142787
0.142764
0.142735
0.1427
0.14266
0.142616
0.142566
0.142512
0.142453
0.142391
0.142324
0.142254
0.14218
0.142103
0.142023
0.141939
0.141853
0.141765
0.141674
0.14158
0.141485
0.141388
0.141288
0.141187
0.141085
0.140981
0.140875
0.140769
0.140661
0.140552
0.140442
0.140332
0.14022
0.140108
0.139996
0.139883
0.139769
0.139656
0.139542
0.139427
0.139313
0.139198
0.139083
0.138969
0.138854
0.13874
0.138625
0.138511
0.138397
0.138284
0.13817
0.138057
0.137944
0.137832
0.13772
0.137609
0.137498
0.137387
0.137277
0.137167
0.137058
0.13695
0.136842
0.136734
0.136628
0.136521
0.136416
0.136311
0.136206
0.136103
0.136
0.135897
0.135795
0.135694
0.135593
0.135493
0.135394
0.135295
0.135197
0.1351
0.135003
0.134906
0.134811
0.134716
0.134622
0.134528
0.134435
0.134342
0.13425
0.134159
0.134068
0.133978
0.133888
0.133799
0.133711
0.133623
0.133536
0.133449
0.133363
0.133277
0.133192
0.133107
0.133023
0.132939
0.132856
0.132774
0.132692
0.13261
0.132529
0.132448
0.132368
0.132288
0.132209
0.13213
0.132052
0.131974
0.131896
0.131819
0.131742
0.131666
0.13159
0.131514
0.131439
0.131365
0.13129
0.131216
0.131143
0.131069
0.130997
0.130924
0.130852
0.13078
0.130709
0.130638
0.130567
0.130497
0.130426
0.130357
0.130287
0.130218
0.130149
0.130081
0.130013
0.129945
0.129877
0.12981
0.129743
0.129677
0.12961
0.129544
0.129479
0.129413
0.129348
0.129283
0.129219
0.129154
0.12909
0.129027
0.128963
0.1289
0.128838
0.128775
0.128713
0.128651
0.128589
0.128528
0.128467
0.128406
0.128346
0.128286
0.128226
0.128166
0.128107
0.128048
0.12799
0.127932
0.127874
0.127816
0.127759
0.127702
0.127645
0.127589
0.127533
0.127477
0.127422
0.127367
0.127313
0.127259
0.127205
0.127152
0.127099
0.127046
0.126994
0.126942
0.126891
0.12684
0.126789
0.126739
0.12669
0.126641
0.126592
0.126544
0.126496
0.126449
0.126403
0.126357
0.126311
0.126266
0.126222
0.126178
0.126135
0.126093
0.126051
0.12601
0.125969
0.125929
0.12589
0.125852
0.125814
0.125777
0.125741
0.125706
0.125672
0.125638
0.125605
0.125574
0.125543
0.125513
0.125484
0.125456
0.125429
0.125403
0.125379
0.125355
0.125332
0.125311
0.125291
0.125272
0.125254
0.125237
0.125222
0.125208
0.125195
0.125184
0.125173
0.125164
0.125157
0.125151
0.125145
0.125141
0.125141
0.1
0.09999
0.0999882
0.0999944
0.100008
0.10003
0.100058
0.100092
0.100132
0.100176
0.100225
0.100278
0.100335
0.100394
0.100457
0.100522
0.10059
0.100661
0.100735
0.100812
0.100892
0.100977
0.101065
0.101158
0.101256
0.10136
0.101469
0.101585
0.101707
0.101836
0.101971
0.102114
0.102265
0.102423
0.102588
0.102762
0.102943
0.103132
0.103329
0.103534
0.103748
0.103969
0.104199
0.104437
0.104683
0.104939
0.105203
0.105475
0.105757
0.106049
0.106349
0.10666
0.10698
0.10731
0.107651
0.108002
0.108363
0.108735
0.109117
0.109511
0.109915
0.11033
0.110756
0.111193
0.11164
0.112098
0.112567
0.113046
0.113534
0.114033
0.114541
0.115059
0.115585
0.11612
0.116663
0.117214
0.117772
0.118336
0.118907
0.119483
0.120064
0.12065
0.12124
0.121832
0.122427
0.123024
0.123621
0.124219
0.124817
0.125413
0.126007
0.126598
0.127187
0.12777
0.128349
0.128922
0.129489
0.130049
0.130601
0.131144
0.131679
0.132203
0.132718
0.133222
0.133715
0.134196
0.134665
0.135121
0.135565
0.135995
0.136412
0.136816
0.137206
0.137582
0.137944
0.138292
0.138626
0.138946
0.139251
0.139543
0.139821
0.140085
0.140336
0.140573
0.140797
0.141007
0.141205
0.14139
0.141563
0.141724
0.141873
0.142011
0.142137
0.142252
0.142357
0.142451
0.142535
0.142609
0.142674
0.14273
0.142777
0.142815
0.142845
0.142867
0.142882
0.142889
0.142889
0.142882
0.142868
0.142849
0.142823
0.142792
0.142755
0.142713
0.142665
0.142613
0.142557