# vtk DataFile Version 3.0
LBM Fluid Grid
ASCII
DATASET STRUCTURED_POINTS
DIMENSIONS 400 150 1
ORIGIN 0 0 0
SPACING 1 1 1
POINT_DATA 60000
SCALARS VelocityMagnitude double 1
LOOKUP_TABLE default
0.1
0.100003
0.10001
0.100021
0.100037
0.100056
0.10008
0.100107
0.100139
0.100176
0.100216
0.100261
0.10031
0.100364
0.100423
0.100486
0.100554
0.100627
0.100704
0.100787
0.100875
0.100968
0.101066
0.10117
0.101279
0.101394
0.101514
0.10164
0.101773
0.101911
0.102056
0.102207
0.102365
0.10253
0.102701
0.10288
0.103065
0.103258
0.103459
0.103667
0.103883
0.104107
0.104339
0.10458
0.104829
0.105087
0.105354
0.10563
0.105914
0.106208
0.106512
0.106825
0.107147
0.107479
0.107821
0.108173
0.108535
0.108907
0.109288
0.10968
0.110082
0.110493
0.110915
0.111346
0.111787
0.112238
0.112698
0.113167
0.113646
0.114133
0.114629
0.115134
0.115646
0.116166
0.116694
0.117228
0.117769
0.118316
0.118868
0.119426
0.119988
0.120554
0.121123
0.121695
0.12227
0.122846
0.123423
0.124
0.124577
0.125153
0.125726
0.126298
0.126866
0.127431
0.127991
0.128546
0.129095
0.129638
0.130173
0.130702
0.131221
0.131733
0.132235
0.132727
0.133209
0.13368
0.134141
0.13459
0.135027
0.135452
0.135865
0.136265
0.136653
0.137028
0.13739
0.137738
0.138074
0.138396
0.138705
0.139001
0.139283
0.139553
0.139809
0.140053
0.140284
0.140502
0.140708
0.140902
0.141083
0.141253
0.141411
0.141558
0.141694
0.141819
0.141934
0.142038
0.142132
0.142217
0.142292
0.142358
0.142415
0.142464
0.142504
0.142536
0.142561
0.142578
0.142588
0.142591
0.142587
0.142578
0.142562
0.14254
0.142512
0.14248
0.142442
0.142399
0.142352
0.1423
0.142244
0.142184
0.142121
0.142053
0.141983
0.141909
0.141832
0.141753
0.14167
0.141585
0.141498
0.141409
0.141317
0.141224
0.141129
0.141032
0.140934
0.140834
0.140733
0.140631
0.140528
0.140424
0.140319
0.140213
0.140107
0.14
0.139892
0.139784
0.139676
0.139567
0.139458
0.139349
0.13924
0.139131
0.139022
0.138913
0.138803
0.138694
0.138586
0.138477
0.138369
0.138261
0.138153
0.138046
0.137939
0.137832
0.137726
0.13762
0.137515
0.13741
0.137306
0.137202
0.137099
0.136996
0.136894
0.136793
0.136692
0.136592
0.136492
0.136393
0.136294
0.136196
0.136099
0.136002
0.135906
0.135811
0.135716
0.135622
0.135528
0.135436
0.135343
0.135252
0.13516
0.13507
0.13498
0.134891
0.134802
0.134714
0.134627
0.13454
0.134454
0.134368
0.134283
0.134198
0.134114
0.134031
0.133948
0.133865
0.133784
0.133702
0.133621
0.133541
0.133461
0.133382
0.133303
0.133225
0.133147
0.13307
0.132993
0.132917
0.132841
0.132765
0.13269
0.132615
0.132541
0.132467
0.132394
0.132321
0.132248
0.132176
0.132104
0.132033
0.131962
0.131891
0.131821
0.131751
0.131681
0.131612
0.131543
0.131474
0.131406
0.131338
0.131271
0.131203
0.131136
0.13107
0.131003
0.130937
0.130871
0.130806
0.130741
0.130676
0.130611
0.130547
0.130483
0.130419
0.130355
0.130292
0.130229
0.130166
0.130104
0.130041
0.129979
0.129918
0.129856
0.129795
0.129734
0.129673
0.129613
0.129552
0.129492
0.129433
0.129373
0.129314
0.129255
0.129196
0.129138
0.129079
0.129021
0.128963
0.128906
0.128849
0.128792
0.128735
0.128678
0.128622
0.128566
0.12851
0.128455
0.1284
0.128345
0.12829
0.128236
0.128182
0.128128
0.128075
0.128022
0.127969
0.127916
0.127864
0.127812
0.127761
0.12771
0.127659
0.127609
0.127559
0.127509
0.12746
0.127411
0.127363
0.127315
0.127267
0.12722
0.127174
0.127128
0.127082
0.127037
0.126993
0.126949
0.126905
0.126862
0.12682
0.126778
0.126737
0.126697
0.126657
0.126618
0.12658
0.126542
0.126505
0.126469
0.126434
0.126399
0.126366
0.126333
0.126301
0.12627
0.12624
0.126211
0.126183
0.126155
0.126129
0.126104
0.12608
0.126057
0.126035
0.126014
0.125995
0.125977
0.125959
0.125943
0.125929
0.125915
0.125903
0.125892
0.125882
0.125873
0.125866
0.12586
0.125854
0.12585
0.12585
0.1
0.100003
0.10001
0.100021
0.100037
0.100056
0.10008
0.100107
0.100139
0.100176
0.100216
0.100261
0.100311
0.100364
0.100423
0.100486
0.100554
0.100627
0.100705
0.100787
0.100875
0.100968
0.101067
0.10117
0.101279
0.101394
0.101515
0.101641
0.101774
0.101912
0.102057
0.102209
0.102366
0.102531
0.102702
0.102881
0.103067
0.10326
0.10346
0.103669
0.103885
0.104109
0.104341
0.104582
0.104831
0.105089
0.105356
0.105632
0.105916
0.10621
0.106514
0.106827
0.107149
0.107482
0.107824
0.108175
0.108537
0.108909
0.109291
0.109682
0.110084
0.110495
0.110917
0.111348
0.111789
0.112239
0.112699
0.113169
0.113647
0.114134
0.11463
0.115134
0.115647
0.116166
0.116694
0.117228
0.117768
0.118315
0.118867
0.119424
0.119986
0.120552
0.121121
0.121693
0.122267
0.122843
0.12342
0.123997
0.124573
0.125148
0.125722
0.126293
0.126861
0.127425
0.127985
0.12854
0.129089
0.129631
0.130167
0.130695
0.131214
0.131725
0.132227
0.132719
0.133201
0.133672
0.134133
0.134581
0.135019
0.135444
0.135856
0.136257
0.136644
0.137019
0.137381
0.13773
0.138065
0.138387
0.138696
0.138992
0.139275
0.139544
0.139801
0.140045
0.140276
0.140494
0.1407
0.140894
0.141076
0.141246
0.141404
0.141551
0.141687
0.141812
0.141927
0.142031
0.142126
0.142211
0.142286
0.142352
0.142409
0.142458
0.142498
0.142531
0.142556
0.142573
0.142583
0.142586
0.142583
0.142573
0.142557
0.142536
0.142508
0.142476
0.142438
0.142396
0.142348
0.142297
0.142241
0.142181
0.142118
0.142051
0.14198
0.141907
0.14183
0.14175
0.141668
0.141583
0.141496
0.141407
0.141316
0.141223
0.141128
0.141031
0.140933
0.140833
0.140733
0.140631
0.140528
0.140424
0.140319
0.140213
0.140107
0.14
0.139893
0.139785
0.139676
0.139568
0.139459
0.13935
0.139241
0.139132
0.139023
0.138914
0.138805
0.138696
0.138587
0.138479
0.138371
0.138263
0.138155
0.138048
0.137941
0.137834
0.137728
0.137623
0.137518
0.137413
0.137309
0.137205
0.137102
0.137
0.136898
0.136796
0.136696
0.136595
0.136496
0.136397
0.136298
0.136201
0.136103
0.136007
0.135911
0.135816
0.135721
0.135627
0.135533
0.135441
0.135348
0.135257
0.135166
0.135075
0.134986
0.134897
0.134808
0.13472
0.134633
0.134546
0.13446
0.134374
0.134289
0.134205
0.134121
0.134037
0.133955
0.133872
0.133791
0.133709
0.133629
0.133549
0.133469
0.13339
0.133311
0.133233
0.133155
0.133078
0.133001
0.132925
0.132849
0.132773
0.132698
0.132624
0.13255
0.132476
0.132403
0.13233
0.132257
0.132185
0.132113
0.132042
0.131971
0.131901
0.13183
0.13176
0.131691
0.131622
0.131553
0.131484
0.131416
0.131348
0.131281
0.131214
0.131147
0.13108
0.131014
0.130948
0.130882
0.130817
0.130751
0.130687
0.130622
0.130558
0.130494
0.13043
0.130367
0.130303
0.13024
0.130178
0.130115
0.130053
0.129991
0.129929
0.129868
0.129807
0.129746
0.129685
0.129625
0.129565
0.129505
0.129445
0.129386
0.129326
0.129267
0.129209
0.12915
0.129092
0.129034
0.128976
0.128919
0.128862
0.128805
0.128748
0.128691
0.128635
0.128579
0.128524
0.128468
0.128413
0.128358
0.128304
0.128249
0.128195
0.128142
0.128088
0.128035
0.127983
0.12793
0.127878
0.127826
0.127775
0.127724
0.127673
0.127623
0.127573
0.127523
0.127474
0.127425
0.127377
0.127329
0.127282
0.127235
0.127188
0.127142
0.127097
0.127052
0.127007
0.126963
0.12692
0.126877
0.126835
0.126793
0.126752
0.126712
0.126672
0.126633
0.126595
0.126557
0.12652
0.126484
0.126449
0.126415
0.126381
0.126348
0.126316
0.126285
0.126255
0.126226
0.126198
0.126171
0.126145
0.12612
0.126095
0.126073
0.126051
0.12603
0.126011
0.125992
0.125975
0.125959
0.125944
0.125931
0.125918
0.125907
0.125898
0.125889
0.125882
0.125875
0.12587
0.125866
0.125866
0.1
0.100003
0.10001
0.100021
0.100037
0.100056
0.10008
0.100107
0.100139
0.100176
0.100216
0.100261
0.10031
0.100364
0.100423
0.100486
0.100554
0.100627
0.100704
0.100787
0.100875
0.100968
0.101066
0.10117
0.101279
0.101394
0.101514
0.10164
0.101773
0.101911
0.102056
0.102207
0.102365
0.10253
0.102701
0.10288
0.103065
0.103258
0.103459
0.103667
0.103883
0.104107
0.104339
0.10458
0.104829
0.105087
0.105354
0.10563
0.105914
0.106208
0.106512
0.106825
0.107147
0.107479
0.107821
0.108173
0.108535
0.108907
0.109288
0.10968
0.110082
0.110493
0.110915
0.111346
0.111787
0.112238
0.112698
0.113167
0.113646
0.114133
0.114629
0.115134
0.115646
0.116166
0.116694
0.117228
0.117769
0.118316
0.118868
0.119426
0.119988
0.120554
0.121123
0.121695
0.12227
0.122846
0.123423
0.124
0.124577
0.125153
0.125726
0.126298
0.126866
0.127431
0.127991
0.128546
0.129095
0.129638
0.130173
0.130702
0.131221
0.131733
0.132235
0.132727
0.133209
0.13368
0.134141
0.13459
0.135027
0.135452
0.135865
0.136265
0.136653
0.137028
0.13739
0.137738
0.138074
0.138396
0.138705
0.139001
0.139283
0.139553
0.139809
0.140053
0.140284
0.140502
0.140708
0.140902
0.141083
0.141253
0.141411
0.141558
0.141694
0.141819
0.141934
0.142038
0.142132
0.142217
0.142292
0.142358
0.142415
0.142464
0.142504
0.142536
0.142561
0.142578
0.142588
0.142591
0.142587
0.142578
0.142562
0.14254
0.142512
0.14248
0.142442
0.142399
0.142352
0.1423
0.142244
0.142184
0.142121
0.142053
0.141983
0.141909
0.141832
0.141753
0.14167
0.141585
0.141498
0.141409
0.141317
0.141224
0.141129
0.141032
0.140934
0.140834
0.140733
0.140631
0.140528
0.140424
0.140319
0.140213
0.140107
0.14
0.139892
0.139784
0.139676
0.139567
0.139458
0.139349
0.13924
0.139131
0.139022
0.138913
0.138803
0.138694
0.138586
0.138477
0.138369
0.138261
0.138153
0.138046
0.137939
0.137832
0.137726
0.13762
0.137515
0.13741
0.137306
0.137202
0.137099
0.136996
0.136894
0.136793
0.136692
0.136592
0.136492
0.136393
0.136294
0.136196
0.136099
0.136002
0.135906
0.135811
0.135716
0.135622
0.135528
0.135436
0.135343
0.135252
0.13516
0.13507
0.13498
0.134891
0.134802
0.134714
0.134627
0.13454
0.134454
0.134368
0.134283
0.134198
0.134114
0.134031
0.133948
0.133865
0.133784
0.133702
0.133621
0.133541
0.133461
0.133382
0.133303
0.133225
0.133147
0.13307
0.132993
0.132917
0.132841
0.132765
0.13269
0.132615
0.132541
0.132467
0.132394
0.132321
0.132248
0.132176
0.132104
0.132033
0.131962
0.131891
0.131821
0.131751
0.131681
0.131612
0.131543
0.131474
0.131406
0.131338
0.131271
0.131203
0.131136
0.13107
0.131003
0.130937
0.130871
0.130806
0.130741
0.130676
0.130611
0.130547
0.130483
0.130419
0.130355
0.130292
0.130229
0.130166
0.130104
0.130041
0.129979
0.129918
0.129856
0.129795
0.129734
0.129673
0.129613
0.129552
0.129492
0.129433
0.129373
0.129314
0.129255
0.129196
0.129138
0.129079
0.129021
0.128963
0.128906
0.128849
0.128792
0.128735
0.128678
0.128622
0.128566
0.12851
0.128455
0.1284
0.128345
0.12829
0.128236
0.128182
0.128128
0.128075
0.128022
0.127969
0.127916
0.127864
0.127812
0.127761
0.12771
0.127659
0.127609
0.127559
0.127509
0.12746
0.127411
0.127363
0.127315
0.127267
0.12722
0.127174
0.127128
0.127082
0.127037
0.126993
0.126949
0.126905
0.126862
0.12682
0.126778
0.126737
0.126697
0.126657
0.126618
0.12658
0.126542
0.126505
0.126469
0.126434
0.126399
0.126366
0.126333
0.126301
0.12627
0.12624
0.126211
0.126183
0.126155
0.126129
0.126104
0.12608
0.126057
0.126035
0.126014
0.125995
0.125977
0.125959
0.125943
0.125929
0.125915
0.125903
0.125892
0.125882
0.125873
0.125866
0.12586
0.125854
0.12585
0.12585
0.1
0.100003
0.10001
0.100021
0.100037
0.100056
0.10008
0.100107
0.100139
0.100175
0.100216
0.10026
0.10031
0.100364
0.100422
0.100485
0.100553
0.100625
0.100703
0.100786
0.100873
0.100966
0.101064
0.101168
0.101277
0.101391
0.101512
0.101638
0.10177
0.101908
0.102053
0.102204
0.102362
0.102526
0.102697
0.102875
0.103061
0.103254
0.103454
0.103662
0.103878
0.104102
0.104334
0.104574
0.104823
0.105081
0.105348
0.105623
0.105908
0.106202
0.106505
0.106818
0.10714
0.107473
0.107815
0.108166
0.108528
0.1089
0.109282
0.109674
0.110075
0.110487
0.110909
0.11134
0.111782
0.112233
0.112693
0.113163
0.113642
0.11413
0.114626
0.115131
0.115644
0.116165
0.116693
0.117228
0.11777
0.118317
0.118871
0.119429
0.119992
0.120559
0.121129
0.121702
0.122278
0.122855
0.123433
0.124011
0.124588
0.125165
0.12574
0.126312
0.126882
0.127447
0.128008
0.128564
0.129114
0.129657
0.130194
0.130722
0.131243
0.131755
0.132257
0.13275
0.133233
0.133705
0.134165
0.134615
0.135052
0.135478
0.135891
0.136291
0.136679
0.137054
0.137416
0.137764
0.1381
0.138422
0.138731
0.139026
0.139309
0.139578
0.139834
0.140077
0.140308
0.140526
0.140731
0.140925
0.141106
0.141275
0.141433
0.14158
0.141715
0.14184
0.141954
0.142058
0.142151
0.142236
0.14231
0.142376
0.142432
0.142481
0.14252
0.142552
0.142576
0.142593
0.142602
0.142605
0.142601
0.142591
0.142574
0.142552
0.142524
0.142491
0.142453
0.14241
0.142362
0.14231
0.142253
0.142193
0.142129
0.142061
0.14199
0.141916
0.141839
0.141759
0.141676
0.141591
0.141503
0.141414
0.141322
0.141228
0.141133
0.141036
0.140937
0.140837
0.140736
0.140633
0.14053
0.140425
0.14032
0.140214
0.140107
0.14
0.139892
0.139783
0.139675
0.139566
0.139456
0.139347
0.139237
0.139128
0.139018
0.138909
0.138799
0.13869
0.138581
0.138472
0.138363
0.138255
0.138147
0.138039
0.137932
0.137825
0.137718
0.137612
0.137507
0.137402
0.137297
0.137193
0.137089
0.136987
0.136884
0.136782
0.136681
0.13658
0.13648
0.136381
0.136282
0.136184
0.136086
0.135989
0.135893
0.135797
0.135702
0.135607
0.135514
0.13542
0.135328
0.135236
0.135144
0.135053
0.134963
0.134874
0.134785
0.134696
0.134609
0.134521
0.134435
0.134349
0.134263
0.134178
0.134094
0.13401
0.133927
0.133844
0.133762
0.133681
0.1336
0.133519
0.133439
0.133359
0.13328
0.133202
0.133124
0.133046
0.132969
0.132892
0.132816
0.13274
0.132665
0.13259
0.132515
0.132441
0.132367
0.132294
0.132221
0.132149
0.132077
0.132005
0.131934
0.131863
0.131792
0.131722
0.131652
0.131582
0.131513
0.131444
0.131376
0.131308
0.13124
0.131172
0.131105
0.131038
0.130972
0.130905
0.130839
0.130773
0.130708
0.130643
0.130578
0.130513
0.130449
0.130385
0.130321
0.130258
0.130195
0.130132
0.130069
0.130006
0.129944
0.129882
0.129821
0.129759
0.129698
0.129637
0.129576
0.129516
0.129456
0.129396
0.129336
0.129277
0.129217
0.129158
0.1291
0.129041
0.128983
0.128925
0.128867
0.12881
0.128753
0.128696
0.128639
0.128583
0.128527
0.128471
0.128415
0.12836
0.128305
0.12825
0.128195
0.128141
0.128087
0.128034
0.127981
0.127928
0.127875
0.127823
0.127771
0.127719
0.127668
0.127617
0.127567
0.127517
0.127467
0.127418
0.127369
0.12732
0.127272
0.127224
0.127177
0.127131
0.127084
0.127039
0.126994
0.126949
0.126905
0.126861
0.126818
0.126776
0.126734
0.126693
0.126652
0.126613
0.126573
0.126535
0.126497
0.12646
0.126424
0.126389
0.126354
0.12632
0.126287
0.126255
0.126224
0.126194
0.126165
0.126136
0.126109
0.126083
0.126058
0.126034
0.12601
0.125989
0.125968
0.125948
0.12593
0.125912
0.125896
0.125881
0.125868
0.125855
0.125844
0.125834
0.125826
0.125818
0.125812
0.125807
0.125803
0.125803
0.1
0.100003
0.10001
0.100021
0.100037
0.100056
0.100079
0.100107
0.100139
0.100175
0.100215
0.10026
0.100309
0.100363
0.100421
0.100484
0.100551
0.100624
0.100701
0.100783
0.100871
0.100963
0.101061
0.101164
0.101273
0.101387
0.101508
0.101633
0.101765
0.101903
0.102048
0.102198
0.102356
0.10252
0.102691
0.102868
0.103054
0.103246
0.103446
0.103654
0.103869
0.104093
0.104325
0.104565
0.104814
0.105071
0.105337
0.105613
0.105897
0.106191
0.106494
0.106807
0.107129
0.107461
0.107803
0.108155
0.108517
0.108889
0.109271
0.109663
0.110065
0.110477
0.110899
0.111331
0.111773
0.112224
0.112686
0.113156
0.113636
0.114124
0.114622
0.115128
0.115642
0.116163
0.116693
0.117229
0.117772
0.11832
0.118875
0.119435
0.119999
0.120567
0.121139
0.121714
0.122291
0.122869
0.123449
0.124029
0.124608
0.125186
0.125762
0.126336
0.126907
0.127474
0.128036
0.128593
0.129145
0.12969
0.130227
0.130757
0.131279
0.131792
0.132295
0.132789
0.133272
0.133745
0.134206
0.134656
0.135094
0.13552
0.135933
0.136334
0.136722
0.137097
0.137459
0.137807
0.138143
0.138465
0.138773
0.139069
0.139351
0.13962
0.139875
0.140118
0.140348
0.140566
0.140771
0.140963
0.141144
0.141313
0.14147
0.141616
0.14175
0.141874
0.141987
0.14209
0.142183
0.142267
0.142341
0.142405
0.142461
0.142509
0.142548
0.142579
0.142602
0.142618
0.142627
0.142628
0.142624
0.142612
0.142595
0.142572
0.142544
0.14251
0.142471
0.142427
0.142379
0.142326
0.142269
0.142208
0.142143
0.142075
0.142003
0.141928
0.14185
0.141769
0.141686
0.1416
0.141512
0.141421
0.141329
0.141235
0.141139
0.141041
0.140942
0.140841
0.140739
0.140636
0.140532
0.140427
0.140321
0.140214
0.140107
0.139999
0.13989
0.139781
0.139672
0.139563
0.139453
0.139343
0.139233
0.139122
0.139012
0.138902
0.138792
0.138682
0.138573
0.138463
0.138354
0.138245
0.138136
0.138028
0.13792
0.137813
0.137705
0.137599
0.137493
0.137387
0.137282
0.137177
0.137073
0.13697
0.136867
0.136764
0.136662
0.136561
0.136461
0.136361
0.136261
0.136162
0.136064
0.135967
0.13587
0.135774
0.135678
0.135583
0.135488
0.135395
0.135301
0.135209
0.135117
0.135026
0.134935
0.134845
0.134755
0.134666
0.134578
0.13449
0.134403
0.134317
0.134231
0.134145
0.13406
0.133976
0.133892
0.133809
0.133727
0.133644
0.133563
0.133482
0.133401
0.133321
0.133242
0.133162
0.133084
0.133006
0.132928
0.132851
0.132774
0.132698
0.132622
0.132547
0.132472
0.132397
0.132323
0.132249
0.132176
0.132103
0.13203
0.131958
0.131886
0.131815
0.131744
0.131673
0.131603
0.131533
0.131463
0.131394
0.131325
0.131257
0.131188
0.13112
0.131053
0.130985
0.130918
0.130852
0.130785
0.130719
0.130653
0.130588
0.130523
0.130458
0.130393
0.130329
0.130264
0.130201
0.130137
0.130074
0.130011
0.129948
0.129885
0.129823
0.129761
0.129699
0.129638
0.129576
0.129515
0.129455
0.129394
0.129334
0.129274
0.129214
0.129155
0.129095
0.129036
0.128978
0.128919
0.128861
0.128803
0.128745
0.128688
0.12863
0.128574
0.128517
0.12846
0.128404
0.128348
0.128293
0.128238
0.128183
0.128128
0.128073
0.128019
0.127966
0.127912
0.127859
0.127806
0.127754
0.127701
0.12765
0.127598
0.127547
0.127496
0.127446
0.127396
0.127347
0.127297
0.127249
0.1272
0.127153
0.127105
0.127058
0.127012
0.126966
0.126921
0.126876
0.126832
0.126788
0.126745
0.126702
0.12666
0.126619
0.126578
0.126538
0.126499
0.12646
0.126422
0.126385
0.126349
0.126313
0.126278
0.126244
0.126211
0.126179
0.126148
0.126117
0.126088
0.12606
0.126032
0.126006
0.12598
0.125956
0.125933
0.125911
0.12589
0.12587
0.125851
0.125834
0.125818
0.125803
0.125789
0.125777
0.125766
0.125756
0.125747
0.125739
0.125733
0.125728
0.125724
0.125724
0.1
0.100003
0.10001
0.100021
0.100036
0.100056
0.100079
0.100106
0.100138
0.100174
0.100214
0.100259
0.100308
0.100361
0.100419
0.100482
0.100549
0.100621
0.100698
0.10078
0.100867
0.100959
0.101057
0.10116
0.101268
0.101382
0.101502
0.101627
0.101759
0.101896
0.10204
0.10219
0.102347
0.102511
0.102681
0.102859
0.103043
0.103235
0.103435
0.103642
0.103857
0.10408
0.104312
0.104552
0.1048
0.105057
0.105323
0.105598
0.105882
0.106176
0.106479
0.106791
0.107113
0.107446
0.107787
0.108139
0.108501
0.108873
0.109255
0.109648
0.11005
0.110463
0.110885
0.111318
0.11176
0.112213
0.112675
0.113146
0.113627
0.114116
0.114615
0.115122
0.115638
0.116161
0.116691
0.117229
0.117774
0.118325
0.118881
0.119443
0.120009
0.120579
0.121153
0.12173
0.122309
0.12289
0.123472
0.124053
0.124635
0.125215
0.125794
0.12637
0.126943
0.127512
0.128076
0.128635
0.129188
0.129735
0.130274
0.130806
0.131329
0.131844
0.132349
0.132843
0.133328
0.133801
0.134264
0.134714
0.135153
0.135579
0.135993
0.136394
0.136783
0.137158
0.13752
0.137868
0.138203
0.138525
0.138833
0.139128
0.13941
0.139678
0.139933
0.140175
0.140405
0.140621
0.140825
0.141017
0.141197
0.141365
0.141521
0.141666
0.141799
0.141922
0.142034
0.142136
0.142228
0.14231
0.142383
0.142447
0.142502
0.142548
0.142586
0.142616
0.142638
0.142652
0.14266
0.142661
0.142655
0.142643
0.142625
0.142601
0.142571
0.142536
0.142496
0.142451
0.142402
0.142348
0.14229
0.142228
0.142162
0.142093
0.14202
0.141944
0.141865
0.141784
0.141699
0.141613
0.141523
0.141432
0.141339
0.141244
0.141147
0.141048
0.140948
0.140846
0.140744
0.14064
0.140535
0.140429
0.140322
0.140214
0.140106
0.139997
0.139888
0.139778
0.139668
0.139558
0.139447
0.139336
0.139225
0.139114
0.139003
0.138892
0.138781
0.138671
0.13856
0.13845
0.13834
0.13823
0.138121
0.138012
0.137903
0.137795
0.137687
0.137579
0.137472
0.137366
0.13726
0.137155
0.13705
0.136945
0.136842
0.136738
0.136636
0.136534
0.136432
0.136332
0.136231
0.136132
0.136033
0.135935
0.135837
0.13574
0.135643
0.135548
0.135452
0.135358
0.135264
0.135171
0.135078
0.134986
0.134894
0.134804
0.134713
0.134624
0.134535
0.134446
0.134358
0.134271
0.134184
0.134098
0.134013
0.133928
0.133843
0.133759
0.133676
0.133593
0.133511
0.133429
0.133348
0.133267
0.133187
0.133107
0.133028
0.132949
0.13287
0.132793
0.132715
0.132638
0.132562
0.132486
0.13241
0.132335
0.13226
0.132186
0.132112
0.132038
0.131965
0.131892
0.13182
0.131748
0.131676
0.131605
0.131534
0.131463
0.131393
0.131323
0.131254
0.131185
0.131116
0.131047
0.130979
0.130911
0.130844
0.130776
0.130709
0.130643
0.130576
0.13051
0.130445
0.130379
0.130314
0.130249
0.130184
0.13012
0.130056
0.129992
0.129929
0.129865
0.129802
0.12974
0.129677
0.129615
0.129553
0.129491
0.12943
0.129369
0.129308
0.129247
0.129187
0.129126
0.129066
0.129007
0.128947
0.128888
0.128829
0.128771
0.128712
0.128654
0.128596
0.128539
0.128481
0.128424
0.128368
0.128311
0.128255
0.128199
0.128143
0.128088
0.128033
0.127978
0.127924
0.12787
0.127816
0.127762
0.127709
0.127656
0.127604
0.127552
0.1275
0.127449
0.127398
0.127347
0.127297
0.127247
0.127197
0.127148
0.1271
0.127052
0.127004
0.126957
0.12691
0.126864
0.126819
0.126773
0.126729
0.126685
0.126641
0.126599
0.126556
0.126515
0.126474
0.126434
0.126394
0.126355
0.126317
0.12628
0.126243
0.126207
0.126172
0.126138
0.126105
0.126072
0.126041
0.12601
0.12598
0.125952
0.125924
0.125897
0.125872
0.125847
0.125824
0.125802
0.125781
0.125761
0.125742
0.125724
0.125708
0.125693
0.125679
0.125666
0.125655
0.125645
0.125636
0.125629
0.125622
0.125617
0.125613
0.125613
0.1
0.100003
0.10001
0.100021
0.100036
0.100055
0.100079
0.100106
0.100137
0.100173
0.100213
0.100257
0.100306
0.100359
0.100417
0.100479
0.100546
0.100618
0.100695
0.100776
0.100863
0.100955
0.101052
0.101154
0.101262
0.101375
0.101494
0.101619
0.10175
0.101887
0.102031
0.10218
0.102336
0.102499
0.102669
0.102846
0.10303
0.103221
0.10342
0.103627
0.103842
0.104064
0.104295
0.104534
0.104782
0.105039
0.105304
0.105579
0.105863
0.106156
0.106459
0.106771
0.107093
0.107425
0.107767
0.108119
0.108481
0.108853
0.109235
0.109628
0.110031
0.110444
0.110867
0.111301
0.111744
0.112197
0.11266
0.113133
0.113615
0.114106
0.114606
0.115115
0.115632
0.116157
0.11669
0.11723
0.117777
0.11833
0.118889
0.119453
0.120022
0.120595
0.121171
0.121751
0.122333
0.122916
0.123501
0.124085
0.12467
0.125253
0.125834
0.126413
0.126989
0.12756
0.128127
0.128689
0.129245
0.129794
0.130335
0.130869
0.131394
0.13191
0.132417
0.132913
0.133399
0.133874
0.134338
0.134789
0.135229
0.135656
0.136071
0.136472
0.136861
0.137236
0.137598
0.137946
0.138281
0.138602
0.13891
0.139205
0.139486
0.139753
0.140007
0.140249
0.140477
0.140693
0.140896
0.141086
0.141265
0.141431
0.141586
0.14173
0.141862
0.141984
0.142094
0.142195
0.142285
0.142366
0.142438
0.1425
0.142553
0.142598
0.142634
0.142663
0.142683
0.142697
0.142703
0.142702
0.142695
0.142681
0.142662
0.142636
0.142605
0.142569
0.142528
0.142482
0.142431
0.142376
0.142316
0.142253
0.142186
0.142115
0.142041
0.141964
0.141884
0.141801
0.141716
0.141628
0.141538
0.141445
0.141351
0.141254
0.141156
0.141056
0.140955
0.140852
0.140748
0.140643
0.140537
0.14043
0.140322
0.140214
0.140104
0.139994
0.139884
0.139773
0.139662
0.13955
0.139439
0.139327
0.139215
0.139103
0.138991
0.138879
0.138767
0.138655
0.138543
0.138432
0.138321
0.13821
0.1381
0.13799
0.13788
0.13777
0.137662
0.137553
0.137445
0.137338
0.137231
0.137124
0.137018
0.136913
0.136808
0.136704
0.1366
0.136497
0.136395
0.136293
0.136192
0.136091
0.135991
0.135892
0.135793
0.135695
0.135598
0.135501
0.135405
0.135309
0.135214
0.13512
0.135027
0.134933
0.134841
0.134749
0.134658
0.134567
0.134477
0.134388
0.134299
0.134211
0.134123
0.134036
0.13395
0.133864
0.133779
0.133694
0.133609
0.133526
0.133442
0.13336
0.133278
0.133196
0.133115
0.133034
0.132954
0.132874
0.132795
0.132716
0.132638
0.13256
0.132483
0.132406
0.13233
0.132254
0.132178
0.132103
0.132028
0.131954
0.13188
0.131806
0.131733
0.13166
0.131588
0.131516
0.131444
0.131373
0.131302
0.131231
0.131161
0.131091
0.131022
0.130952
0.130883
0.130815
0.130747
0.130679
0.130611
0.130544
0.130477
0.13041
0.130344
0.130277
0.130212
0.130146
0.130081
0.130016
0.129951
0.129887
0.129823
0.129759
0.129695
0.129632
0.129569
0.129506
0.129443
0.129381
0.129319
0.129257
0.129196
0.129134
0.129074
0.129013
0.128952
0.128892
0.128832
0.128773
0.128713
0.128654
0.128595
0.128537
0.128478
0.12842
0.128362
0.128305
0.128248
0.128191
0.128134
0.128078
0.128022
0.127966
0.12791
0.127855
0.1278
0.127746
0.127691
0.127638
0.127584
0.127531
0.127478
0.127425
0.127373
0.127321
0.12727
0.127219
0.127168
0.127118
0.127069
0.127019
0.12697
0.126922
0.126874
0.126826
0.126779
0.126733
0.126687
0.126641
0.126596
0.126552
0.126508
0.126465
0.126423
0.126381
0.126339
0.126299
0.126259
0.12622
0.126181
0.126144
0.126107
0.126071
0.126035
0.126001
0.125967
0.125934
0.125903
0.125872
0.125842
0.125813
0.125785
0.125758
0.125732
0.125707
0.125684
0.125661
0.12564
0.12562
0.125601
0.125583
0.125566
0.125551
0.125537
0.125524
0.125513
0.125503
0.125494
0.125486
0.12548
0.125475
0.12547
0.12547
0.1
0.100003
0.10001
0.100021
0.100036
0.100055
0.100078
0.100105
0.100136
0.100172
0.100212
0.100256
0.100304
0.100357
0.100414
0.100476
0.100543
0.100614
0.10069
0.100771
0.100857
0.100949
0.101045
0.101147
0.101254
0.101367
0.101485
0.10161
0.10174
0.101876
0.102019
0.102168
0.102323
0.102485
0.102654
0.102831
0.103014
0.103205
0.103403
0.103609
0.103823
0.104044
0.104275
0.104513
0.104761
0.105017
0.105282
0.105556
0.105839
0.106132
0.106434
0.106746
0.107068
0.1074
0.107742
0.108094
0.108456
0.108828
0.109211
0.109604
0.110007
0.110421
0.110845
0.111279
0.111724
0.112178
0.112642
0.113117
0.1136
0.114093
0.114595
0.115106
0.115625
0.116153
0.116688
0.11723
0.11778
0.118336
0.118898
0.119465
0.120037
0.120613
0.121193
0.121776
0.122361
0.122948
0.123536
0.124125
0.124712
0.125299
0.125884
0.126466
0.127045
0.12762
0.12819
0.128755
0.129314
0.129865
0.13041
0.130946
0.131474
0.131992
0.132501
0.132999
0.133487
0.133963
0.134428
0.134881
0.135322
0.13575
0.136165
0.136567
0.136956
0.137331
0.137693
0.138042
0.138376
0.138697
0.139004
0.139298
0.139578
0.139845
0.140098
0.140339
0.140566
0.14078
0.140982
0.141171
0.141348
0.141513
0.141666
0.141808
0.141939
0.142058
0.142168
0.142266
0.142355
0.142434
0.142504
0.142564
0.142616
0.142659
0.142693
0.14272
0.142739
0.142751
0.142755
0.142753
0.142744
0.142728
0.142707
0.14268
0.142647
0.142609
0.142566
0.142518
0.142466
0.142409
0.142348
0.142283
0.142214
0.142142
0.142067
0.141988
0.141906
0.141822
0.141735
0.141646
0.141554
0.14146
0.141364
0.141266
0.141166
0.141065
0.140962
0.140858
0.140753
0.140647
0.140539
0.140431
0.140321
0.140211
0.140101
0.139989
0.139878
0.139765
0.139653
0.13954
0.139427
0.139314
0.1392
0.139087
0.138974
0.13886
0.138747
0.138634
0.138521
0.138408
0.138296
0.138184
0.138072
0.137961
0.13785
0.137739
0.137629
0.137519
0.13741
0.137301
0.137193
0.137085
0.136978
0.136872
0.136765
0.13666
0.136555
0.136451
0.136347
0.136244
0.136142
0.13604
0.135939
0.135838
0.135738
0.135639
0.13554
0.135442
0.135345
0.135248
0.135152
0.135057
0.134962
0.134868
0.134774
0.134681
0.134589
0.134497
0.134406
0.134315
0.134225
0.134136
0.134047
0.133959
0.133871
0.133784
0.133698
0.133612
0.133526
0.133442
0.133357
0.133274
0.13319
0.133108
0.133025
0.132944
0.132862
0.132782
0.132702
0.132622
0.132542
0.132464
0.132385
0.132307
0.13223
0.132153
0.132076
0.132
0.131924
0.131849
0.131774
0.1317
0.131626
0.131552
0.131478
0.131406
0.131333
0.131261
0.131189
0.131117
0.131046
0.130975
0.130905
0.130835
0.130765
0.130696
0.130627
0.130558
0.130489
0.130421
0.130353
0.130286
0.130219
0.130152
0.130085
0.130019
0.129953
0.129887
0.129822
0.129756
0.129692
0.129627
0.129563
0.129499
0.129435
0.129371
0.129308
0.129245
0.129182
0.12912
0.129058
0.128996
0.128934
0.128873
0.128812
0.128751
0.128691
0.12863
0.12857
0.12851
0.128451
0.128392
0.128333
0.128274
0.128216
0.128158
0.1281
0.128043
0.127985
0.127928
0.127872
0.127816
0.12776
0.127704
0.127649
0.127593
0.127539
0.127484
0.12743
0.127377
0.127323
0.12727
0.127218
0.127165
0.127114
0.127062
0.127011
0.12696
0.12691
0.126861
0.126811
0.126762
0.126714
0.126666
0.126619
0.126572
0.126525
0.126479
0.126434
0.126389
0.126345
0.126302
0.126259
0.126216
0.126175
0.126134
0.126094
0.126054
0.126015
0.125977
0.12594
0.125903
0.125868
0.125833
0.125799
0.125766
0.125734
0.125702
0.125672
0.125643
0.125615
0.125587
0.125561
0.125536
0.125512
0.125489
0.125468
0.125447
0.125428
0.12541
0.125393
0.125378
0.125363
0.12535
0.125339
0.125328
0.125319
0.125312
0.125305
0.1253
0.125296
0.125296
0.1
0.100003
0.10001
0.100021
0.100036
0.100055
0.100077
0.100104
0.100135
0.10017
0.10021
0.100254
0.100302
0.100354
0.100411
0.100472
0.100538
0.100609
0.100685
0.100765
0.100851
0.100941
0.101037
0.101138
0.101245
0.101357
0.101475
0.101598
0.101728
0.101863
0.102005
0.102153
0.102308
0.102469
0.102637
0.102812
0.102995
0.103184
0.103382
0.103587
0.1038
0.104021
0.10425
0.104488
0.104735
0.10499
0.105254
0.105528
0.105811
0.106103
0.106405
0.106717
0.107038
0.10737
0.107711
0.108063
0.108426
0.108798
0.109181
0.109575
0.109979
0.110394
0.110818
0.111254
0.111699
0.112155
0.112621
0.113097
0.113582
0.114077
0.114582
0.115095
0.115617
0.116147
0.116685
0.117231
0.117783
0.118343
0.118908
0.119479
0.120055
0.120635
0.121219
0.121806
0.122395
0.122986
0.123578
0.124171
0.124763
0.125354
0.125943
0.126529
0.127112
0.127691
0.128265
0.128833
0.129395
0.12995
0.130498
0.131037
0.131568
0.132089
0.1326
0.133101
0.133591
0.134069
0.134536
0.13499
0.135432
0.135861
0.136277
0.13668
0.137069
0.137445
0.137806
0.138155
0.138489
0.138809
0.139116
0.139409
0.139688
0.139954
0.140206
0.140445
0.14067
0.140883
0.141083
0.141271
0.141446
0.141609
0.14176
0.1419
0.142029
0.142147
0.142254
0.142351
0.142437
0.142514
0.142582
0.14264
0.142689
0.14273
0.142762
0.142787
0.142804
0.142813
0.142816
0.142811
0.1428
0.142783
0.142759
0.14273
0.142695
0.142655
0.14261
0.14256
0.142506
0.142447
0.142384